{
    "DOI": "10.1109/NANO58406.2023.10231318",
    "sensor_type": "liquid",
    "detect_target": [
        {
            "substance_name": "hydrogen sulfide",
            "substance_type": "small molecule",
            "substance_descriptors": {
                "CID": 402,
                "MolecularFormula": "H2S",
                "MolecularWeight": "34.08",
                "CanonicalSMILES": "S",
                "IsomericSMILES": "S",
                "InChI": "InChI=1S/H2S/h1H2",
                "InChIKey": "RWSOTUBLDIXVET-UHFFFAOYSA-N",
                "IUPACName": "sulfane",
                "XLogP": 0.5,
                "ExactMass": "33.98772124",
                "MonoisotopicMass": "33.98772124",
                "TPSA": 1,
                "Complexity": 0,
                "Charge": 0,
                "HBondDonorCount": 1,
                "HBondAcceptorCount": 1,
                "RotatableBondCount": 0,
                "HeavyAtomCount": 1,
                "IsotopeAtomCount": 0,
                "AtomStereoCount": 0,
                "DefinedAtomStereoCount": 0,
                "UndefinedAtomStereoCount": 0,
                "BondStereoCount": 0,
                "DefinedBondStereoCount": 0,
                "UndefinedBondStereoCount": 0,
                "CovalentUnitCount": 1,
                "Volume3D": 24.4,
                "XStericQuadrupole3D": 0.69,
                "YStericQuadrupole3D": 0.69,
                "ZStericQuadrupole3D": 0.69,
                "FeatureAcceptorCount3D": 0,
                "FeatureDonorCount3D": 0,
                "FeatureAnionCount3D": 0,
                "FeatureCationCount3D": 0,
                "FeatureRingCount3D": 0,
                "FeatureHydrophobeCount3D": 0,
                "ConformerModelRMSD3D": 0.4,
                "EffectiveRotorCount3D": 0,
                "ConformerCount3D": 1,
                "Morgan_128": [
                    0,
                    0,
                    0,
                    0,
                    0,
                    0,
                    0,
                    0,
                    0,
                    0,
                    0,
                    0,
                    0,
                    0,
                    0,
                    0,
                    0,
                    0,
                    0,
                    0,
                    0,
                    0,
                    0,
                    0,
                    0,
                    0,
                    0,
                    0,
                    0,
                    0,
                    1,
                    0,
                    0,
                    0,
                    0,
                    0,
                    0,
                    0,
                    0,
                    0,
                    0,
                    0,
                    0,
                    0,
                    0,
                    0,
                    0,
                    0,
                    0,
                    0,
                    0,
                    0,
                    0,
                    0,
                    0,
                    0,
                    0,
                    0,
                    0,
                    0,
                    0,
                    0,
                    0,
                    0,
                    0,
                    0,
                    0,
                    0,
                    0,
                    0,
                    0,
                    0,
                    0,
                    0,
                    0,
                    0,
                    0,
                    0,
                    0,
                    0,
                    0,
                    0,
                    0,
                    0,
                    0,
                    0,
                    0,
                    0,
                    0,
                    0,
                    0,
                    0,
                    0,
                    0,
                    0,
                    0,
                    0,
                    0,
                    0,
                    0,
                    0,
                    0,
                    0,
                    0,
                    0,
                    0,
                    0,
                    0,
                    0,
                    0,
                    0,
                    0,
                    0,
                    0,
                    0,
                    0,
                    0,
                    0,
                    0,
                    0,
                    0,
                    0,
                    0,
                    0,
                    0,
                    0,
                    0,
                    0
                ]
            }
        }
    ],
    "lower_detection_limit_log_ppm": -1.468521083,
    "upper_detection_limit_log_ppm": 0.531478917,
    "probe_material": [
        {
            "substance_name": "molybdenum diselenide",
            "substance_type": "inorganic solid",
            "substance_descriptors": {
                "Number of Elements": 2,
                "Element Types": [
                    "Mo",
                    "Se"
                ],
                "Number of Atoms in Unit Cell": 6,
                "Lattice Parameter a (\u00c5)": "3.288",
                "Lattice Parameter b (\u00c5)": "3.288",
                "Lattice Parameter c (\u00c5)": "12.9",
                "Lattice Angle alpha (degrees)": "90",
                "Lattice Angle beta (degrees)": "90",
                "Lattice Angle gamma (degrees)": "120",
                "Unit Cell Volume (\u00c5\u00b3)": 129.4527726305449,
                "Density (g/cm\u00b3)": 6.5127140791360825,
                "Space Group Number": 194,
                "Band Gap (eV)": 1.3010000000000002,
                "Is Metallic (1/0)": 0,
                "Formation Energy per Atom (eV)": -0.7499368427083345,
                "Energy Above Hull (eV/atom)": 0.0,
                "Energy per Atom (eV/atom)": -18.98163681,
                "Total Magnetization (\u03bcB)": 0.0,
                "Magnetic Ordering": "NM",
                "Bulk Modulus (GPa)": 18.747,
                "Shear Modulus (GPa)": 12.625,
                "Fermi Energy (eV)": 3.8297572,
                "Total Energy (eV)": -4.56283,
                "Crystal System": "hexagonal",
                "Magpie Descriptors": {
                    "MagpieData minimum Number": 34.0,
                    "MagpieData maximum Number": 42.0,
                    "MagpieData range Number": 8.0,
                    "MagpieData mean Number": 36.666666666666664,
                    "MagpieData avg_dev Number": 3.5555555555555545,
                    "MagpieData mode Number": 34.0,
                    "MagpieData std_dev Number": 5.656854249492381,
                    "MagpieData minimum MendeleevNumber": 50.0,
                    "MagpieData maximum MendeleevNumber": 89.0,
                    "MagpieData range MendeleevNumber": 39.0,
                    "MagpieData mean MendeleevNumber": 76.0,
                    "MagpieData avg_dev MendeleevNumber": 17.333333333333332,
                    "MagpieData mode MendeleevNumber": 89.0,
                    "MagpieData std_dev MendeleevNumber": 27.577164466275352,
                    "MagpieData minimum AtomicWeight": 78.96,
                    "MagpieData maximum AtomicWeight": 95.96,
                    "MagpieData range AtomicWeight": 17.0,
                    "MagpieData mean AtomicWeight": 84.62666666666667,
                    "MagpieData avg_dev AtomicWeight": 7.555555555555557,
                    "MagpieData mode AtomicWeight": 78.96,
                    "MagpieData std_dev AtomicWeight": 12.020815280171307,
                    "MagpieData minimum MeltingT": 494.0,
                    "MagpieData maximum MeltingT": 2896.0,
                    "MagpieData range MeltingT": 2402.0,
                    "MagpieData mean MeltingT": 1294.6666666666665,
                    "MagpieData avg_dev MeltingT": 1067.5555555555554,
                    "MagpieData mode MeltingT": 494.0,
                    "MagpieData std_dev MeltingT": 1698.4704884100872,
                    "MagpieData minimum Column": 6.0,
                    "MagpieData maximum Column": 16.0,
                    "MagpieData range Column": 10.0,
                    "MagpieData mean Column": 12.666666666666666,
                    "MagpieData avg_dev Column": 4.444444444444445,
                    "MagpieData mode Column": 16.0,
                    "MagpieData std_dev Column": 7.0710678118654755,
                    "MagpieData minimum Row": 4.0,
                    "MagpieData maximum Row": 5.0,
                    "MagpieData range Row": 1.0,
                    "MagpieData mean Row": 4.333333333333333,
                    "MagpieData avg_dev Row": 0.4444444444444443,
                    "MagpieData mode Row": 4.0,
                    "MagpieData std_dev Row": 0.7071067811865476,
                    "MagpieData minimum CovalentRadius": 120.0,
                    "MagpieData maximum CovalentRadius": 154.0,
                    "MagpieData range CovalentRadius": 34.0,
                    "MagpieData mean CovalentRadius": 131.33333333333331,
                    "MagpieData avg_dev CovalentRadius": 15.111111111111104,
                    "MagpieData mode CovalentRadius": 120.0,
                    "MagpieData std_dev CovalentRadius": 24.041630560342615,
                    "MagpieData minimum Electronegativity": 2.16,
                    "MagpieData maximum Electronegativity": 2.55,
                    "MagpieData range Electronegativity": 0.3899999999999997,
                    "MagpieData mean Electronegativity": 2.42,
                    "MagpieData avg_dev Electronegativity": 0.17333333333333317,
                    "MagpieData mode Electronegativity": 2.55,
                    "MagpieData std_dev Electronegativity": 0.2757716446627533,
                    "MagpieData minimum NsValence": 1.0,
                    "MagpieData maximum NsValence": 2.0,
                    "MagpieData range NsValence": 1.0,
                    "MagpieData mean NsValence": 1.6666666666666665,
                    "MagpieData avg_dev NsValence": 0.4444444444444445,
                    "MagpieData mode NsValence": 2.0,
                    "MagpieData std_dev NsValence": 0.7071067811865476,
                    "MagpieData minimum NpValence": 0.0,
                    "MagpieData maximum NpValence": 4.0,
                    "MagpieData range NpValence": 4.0,
                    "MagpieData mean NpValence": 2.6666666666666665,
                    "MagpieData avg_dev NpValence": 1.7777777777777777,
                    "MagpieData mode NpValence": 4.0,
                    "MagpieData std_dev NpValence": 2.8284271247461903,
                    "MagpieData minimum NdValence": 5.0,
                    "MagpieData maximum NdValence": 10.0,
                    "MagpieData range NdValence": 5.0,
                    "MagpieData mean NdValence": 8.333333333333332,
                    "MagpieData avg_dev NdValence": 2.2222222222222223,
                    "MagpieData mode NdValence": 10.0,
                    "MagpieData std_dev NdValence": 3.5355339059327378,
                    "MagpieData minimum NfValence": 0.0,
                    "MagpieData maximum NfValence": 0.0,
                    "MagpieData range NfValence": 0.0,
                    "MagpieData mean NfValence": 0.0,
                    "MagpieData avg_dev NfValence": 0.0,
                    "MagpieData mode NfValence": 0.0,
                    "MagpieData std_dev NfValence": 0.0,
                    "MagpieData minimum NValence": 6.0,
                    "MagpieData maximum NValence": 16.0,
                    "MagpieData range NValence": 10.0,
                    "MagpieData mean NValence": 12.666666666666666,
                    "MagpieData avg_dev NValence": 4.444444444444445,
                    "MagpieData mode NValence": 16.0,
                    "MagpieData std_dev NValence": 7.0710678118654755,
                    "MagpieData minimum NsUnfilled": 0.0,
                    "MagpieData maximum NsUnfilled": 1.0,
                    "MagpieData range NsUnfilled": 1.0,
                    "MagpieData mean NsUnfilled": 0.3333333333333333,
                    "MagpieData avg_dev NsUnfilled": 0.4444444444444444,
                    "MagpieData mode NsUnfilled": 0.0,
                    "MagpieData std_dev NsUnfilled": 0.7071067811865476,
                    "MagpieData minimum NpUnfilled": 0.0,
                    "MagpieData maximum NpUnfilled": 2.0,
                    "MagpieData range NpUnfilled": 2.0,
                    "MagpieData mean NpUnfilled": 1.3333333333333333,
                    "MagpieData avg_dev NpUnfilled": 0.8888888888888888,
                    "MagpieData mode NpUnfilled": 2.0,
                    "MagpieData std_dev NpUnfilled": 1.4142135623730951,
                    "MagpieData minimum NdUnfilled": 0.0,
                    "MagpieData maximum NdUnfilled": 5.0,
                    "MagpieData range NdUnfilled": 5.0,
                    "MagpieData mean NdUnfilled": 1.6666666666666665,
                    "MagpieData avg_dev NdUnfilled": 2.2222222222222223,
                    "MagpieData mode NdUnfilled": 0.0,
                    "MagpieData std_dev NdUnfilled": 3.5355339059327378,
                    "MagpieData minimum NfUnfilled": 0.0,
                    "MagpieData maximum NfUnfilled": 0.0,
                    "MagpieData range NfUnfilled": 0.0,
                    "MagpieData mean NfUnfilled": 0.0,
                    "MagpieData avg_dev NfUnfilled": 0.0,
                    "MagpieData mode NfUnfilled": 0.0,
                    "MagpieData std_dev NfUnfilled": 0.0,
                    "MagpieData minimum NUnfilled": 2.0,
                    "MagpieData maximum NUnfilled": 6.0,
                    "MagpieData range NUnfilled": 4.0,
                    "MagpieData mean NUnfilled": 3.333333333333333,
                    "MagpieData avg_dev NUnfilled": 1.7777777777777777,
                    "MagpieData mode NUnfilled": 2.0,
                    "MagpieData std_dev NUnfilled": 2.8284271247461903,
                    "MagpieData minimum GSvolume_pa": 15.69,
                    "MagpieData maximum GSvolume_pa": 25.92,
                    "MagpieData range GSvolume_pa": 10.230000000000002,
                    "MagpieData mean GSvolume_pa": 22.51,
                    "MagpieData avg_dev GSvolume_pa": 4.546666666666667,
                    "MagpieData mode GSvolume_pa": 25.92,
                    "MagpieData std_dev GSvolume_pa": 7.233702371538382,
                    "MagpieData minimum GSbandgap": 0.0,
                    "MagpieData maximum GSbandgap": 0.799,
                    "MagpieData range GSbandgap": 0.799,
                    "MagpieData mean GSbandgap": 0.5326666666666666,
                    "MagpieData avg_dev GSbandgap": 0.35511111111111116,
                    "MagpieData mode GSbandgap": 0.799,
                    "MagpieData std_dev GSbandgap": 0.5649783181680516,
                    "MagpieData minimum GSmagmom": 0.0,
                    "MagpieData maximum GSmagmom": 0.0,
                    "MagpieData range GSmagmom": 0.0,
                    "MagpieData mean GSmagmom": 0.0,
                    "MagpieData avg_dev GSmagmom": 0.0,
                    "MagpieData mode GSmagmom": 0.0,
                    "MagpieData std_dev GSmagmom": 0.0,
                    "MagpieData minimum SpaceGroupNumber": 14.0,
                    "MagpieData maximum SpaceGroupNumber": 229.0,
                    "MagpieData range SpaceGroupNumber": 215.0,
                    "MagpieData mean SpaceGroupNumber": 85.66666666666666,
                    "MagpieData avg_dev SpaceGroupNumber": 95.55555555555554,
                    "MagpieData mode SpaceGroupNumber": 14.0,
                    "MagpieData std_dev SpaceGroupNumber": 152.02795795510772
                }
            }
        }
    ],
    "test_operating_temperature_celsius": 27.5,
    "min_pH_when_testing": 6.5,
    "max_pH_when_testing": 6.5,
    "test_medium_electrolyte": [
        {
            "substance_name": "water",
            "substance_type": "small molecule",
            "substance_descriptors": {
                "CID": 962,
                "MolecularFormula": "H2O",
                "MolecularWeight": "18.015",
                "CanonicalSMILES": "O",
                "IsomericSMILES": "O",
                "InChI": "InChI=1S/H2O/h1H2",
                "InChIKey": "XLYOFNOQVPJJNP-UHFFFAOYSA-N",
                "IUPACName": "oxidane",
                "XLogP": -0.5,
                "ExactMass": "18.010564683",
                "MonoisotopicMass": "18.010564683",
                "TPSA": 1,
                "Complexity": 0,
                "Charge": 0,
                "HBondDonorCount": 1,
                "HBondAcceptorCount": 1,
                "RotatableBondCount": 0,
                "HeavyAtomCount": 1,
                "IsotopeAtomCount": 0,
                "AtomStereoCount": 0,
                "DefinedAtomStereoCount": 0,
                "UndefinedAtomStereoCount": 0,
                "BondStereoCount": 0,
                "DefinedBondStereoCount": 0,
                "UndefinedBondStereoCount": 0,
                "CovalentUnitCount": 1,
                "Volume3D": 14.7,
                "XStericQuadrupole3D": 0.49,
                "YStericQuadrupole3D": 0.49,
                "ZStericQuadrupole3D": 0.49,
                "FeatureAcceptorCount3D": 1,
                "FeatureDonorCount3D": 1,
                "FeatureAnionCount3D": 0,
                "FeatureCationCount3D": 0,
                "FeatureRingCount3D": 0,
                "FeatureHydrophobeCount3D": 0,
                "ConformerModelRMSD3D": 0.4,
                "EffectiveRotorCount3D": 0,
                "ConformerCount3D": 1,
                "Morgan_128": [
                    0,
                    0,
                    0,
                    0,
                    0,
                    0,
                    0,
                    0,
                    0,
                    0,
                    0,
                    0,
                    0,
                    0,
                    0,
                    0,
                    0,
                    0,
                    0,
                    0,
                    0,
                    0,
                    1,
                    0,
                    0,
                    0,
                    0,
                    0,
                    0,
                    0,
                    0,
                    0,
                    0,
                    0,
                    0,
                    0,
                    0,
                    0,
                    0,
                    0,
                    0,
                    0,
                    0,
                    0,
                    0,
                    0,
                    0,
                    0,
                    0,
                    0,
                    0,
                    0,
                    0,
                    0,
                    0,
                    0,
                    0,
                    0,
                    0,
                    0,
                    0,
                    0,
                    0,
                    0,
                    0,
                    0,
                    0,
                    0,
                    0,
                    0,
                    0,
                    0,
                    0,
                    0,
                    0,
                    0,
                    0,
                    0,
                    0,
                    0,
                    0,
                    0,
                    0,
                    0,
                    0,
                    0,
                    0,
                    0,
                    0,
                    0,
                    0,
                    0,
                    0,
                    0,
                    0,
                    0,
                    0,
                    0,
                    0,
                    0,
                    0,
                    0,
                    0,
                    0,
                    0,
                    0,
                    0,
                    0,
                    0,
                    0,
                    0,
                    0,
                    0,
                    0,
                    0,
                    0,
                    0,
                    0,
                    0,
                    0,
                    0,
                    0,
                    0,
                    0,
                    0,
                    0,
                    0,
                    0
                ]
            }
        }
    ],
    "LDL_ranking": 1.0,
    "UDL_ranking": 1.0,
    "LDL_category": "Moderate Detection",
    "UDL_category": "Low UDL Range"
}