{
    "DOI": "10.1088/1361-6528/aafe44",
    "sensor_type": "gas",
    "detect_target": [
        {
            "substance_name": "ammonia",
            "substance_type": "small molecule",
            "substance_descriptors": {
                "CID": 222,
                "MolecularFormula": "H3N",
                "MolecularWeight": "17.031",
                "CanonicalSMILES": "N",
                "IsomericSMILES": "N",
                "InChI": "InChI=1S/H3N/h1H3",
                "InChIKey": "QGZKDVFQNNGYKY-UHFFFAOYSA-N",
                "IUPACName": "azane",
                "XLogP": -0.7,
                "ExactMass": "17.026549100",
                "MonoisotopicMass": "17.026549100",
                "TPSA": 1,
                "Complexity": 0,
                "Charge": 0,
                "HBondDonorCount": 1,
                "HBondAcceptorCount": 1,
                "RotatableBondCount": 0,
                "HeavyAtomCount": 1,
                "IsotopeAtomCount": 0,
                "AtomStereoCount": 0,
                "DefinedAtomStereoCount": 0,
                "UndefinedAtomStereoCount": 0,
                "BondStereoCount": 0,
                "DefinedBondStereoCount": 0,
                "UndefinedBondStereoCount": 0,
                "CovalentUnitCount": 1,
                "Volume3D": 15.6,
                "XStericQuadrupole3D": 0.51,
                "YStericQuadrupole3D": 0.51,
                "ZStericQuadrupole3D": 0.51,
                "FeatureAcceptorCount3D": 0,
                "FeatureDonorCount3D": 0,
                "FeatureAnionCount3D": 0,
                "FeatureCationCount3D": 1,
                "FeatureRingCount3D": 0,
                "FeatureHydrophobeCount3D": 0,
                "ConformerModelRMSD3D": 0.4,
                "EffectiveRotorCount3D": 0,
                "ConformerCount3D": 1,
                "Morgan_128": [
                    0,
                    0,
                    0,
                    0,
                    0,
                    0,
                    0,
                    0,
                    0,
                    0,
                    0,
                    0,
                    0,
                    0,
                    0,
                    0,
                    0,
                    0,
                    0,
                    0,
                    0,
                    0,
                    0,
                    0,
                    0,
                    0,
                    0,
                    0,
                    0,
                    0,
                    0,
                    0,
                    0,
                    0,
                    1,
                    0,
                    0,
                    0,
                    0,
                    0,
                    0,
                    0,
                    0,
                    0,
                    0,
                    0,
                    0,
                    0,
                    0,
                    0,
                    0,
                    0,
                    0,
                    0,
                    0,
                    0,
                    0,
                    0,
                    0,
                    0,
                    0,
                    0,
                    0,
                    0,
                    0,
                    0,
                    0,
                    0,
                    0,
                    0,
                    0,
                    0,
                    0,
                    0,
                    0,
                    0,
                    0,
                    0,
                    0,
                    0,
                    0,
                    0,
                    0,
                    0,
                    0,
                    0,
                    0,
                    0,
                    0,
                    0,
                    0,
                    0,
                    0,
                    0,
                    0,
                    0,
                    0,
                    0,
                    0,
                    0,
                    0,
                    0,
                    0,
                    0,
                    0,
                    0,
                    0,
                    0,
                    0,
                    0,
                    0,
                    0,
                    0,
                    0,
                    0,
                    0,
                    0,
                    0,
                    0,
                    0,
                    0,
                    0,
                    0,
                    0,
                    0,
                    0,
                    0,
                    0
                ]
            }
        }
    ],
    "lower_detection_limit_log_ppm": -0.070581074,
    "upper_detection_limit_log_ppm": 2.230448921,
    "probe_material": [
        {
            "substance_name": "cadmium sulfide",
            "substance_type": "inorganic solid",
            "substance_descriptors": {
                "Number of Elements": 2,
                "Element Types": [
                    "S",
                    "Cd"
                ],
                "Number of Atoms in Unit Cell": 4,
                "Lattice Parameter a (\u00c5)": "4.137",
                "Lattice Parameter b (\u00c5)": "4.137",
                "Lattice Parameter c (\u00c5)": "6.7144",
                "Lattice Angle alpha (degrees)": "90",
                "Lattice Angle beta (degrees)": "90",
                "Lattice Angle gamma (degrees)": "120",
                "Unit Cell Volume (\u00c5\u00b3)": 102.03892478274858,
                "Density (g/cm\u00b3)": 4.702284793707707,
                "Space Group Number": 186,
                "Band Gap (eV)": 1.125,
                "Is Metallic (1/0)": 0,
                "Formation Energy per Atom (eV)": -0.776127461406249,
                "Energy Above Hull (eV/atom)": 0.0,
                "Energy per Atom (eV/atom)": -14.8461208475,
                "Total Magnetization (\u03bcB)": 0.0,
                "Magnetic Ordering": "NM",
                "Bulk Modulus (GPa)": 53.116,
                "Shear Modulus (GPa)": 17.29,
                "Fermi Energy (eV)": 0.90711455,
                "Total Energy (eV)": -0.65722,
                "Crystal System": "hexagonal",
                "Magpie Descriptors": {
                    "MagpieData minimum Number": 16.0,
                    "MagpieData maximum Number": 48.0,
                    "MagpieData range Number": 32.0,
                    "MagpieData mean Number": 32.0,
                    "MagpieData avg_dev Number": 16.0,
                    "MagpieData mode Number": 16.0,
                    "MagpieData std_dev Number": 22.627416997969522,
                    "MagpieData minimum MendeleevNumber": 70.0,
                    "MagpieData maximum MendeleevNumber": 88.0,
                    "MagpieData range MendeleevNumber": 18.0,
                    "MagpieData mean MendeleevNumber": 79.0,
                    "MagpieData avg_dev MendeleevNumber": 9.0,
                    "MagpieData mode MendeleevNumber": 70.0,
                    "MagpieData std_dev MendeleevNumber": 12.727922061357855,
                    "MagpieData minimum AtomicWeight": 32.065,
                    "MagpieData maximum AtomicWeight": 112.411,
                    "MagpieData range AtomicWeight": 80.346,
                    "MagpieData mean AtomicWeight": 72.238,
                    "MagpieData avg_dev AtomicWeight": 40.173,
                    "MagpieData mode AtomicWeight": 32.065,
                    "MagpieData std_dev AtomicWeight": 56.81320144121435,
                    "MagpieData minimum MeltingT": 388.36,
                    "MagpieData maximum MeltingT": 594.22,
                    "MagpieData range MeltingT": 205.86,
                    "MagpieData mean MeltingT": 491.29,
                    "MagpieData avg_dev MeltingT": 102.93,
                    "MagpieData mode MeltingT": 388.36,
                    "MagpieData std_dev MeltingT": 145.56500197506267,
                    "MagpieData minimum Column": 12.0,
                    "MagpieData maximum Column": 16.0,
                    "MagpieData range Column": 4.0,
                    "MagpieData mean Column": 14.0,
                    "MagpieData avg_dev Column": 2.0,
                    "MagpieData mode Column": 12.0,
                    "MagpieData std_dev Column": 2.8284271247461903,
                    "MagpieData minimum Row": 3.0,
                    "MagpieData maximum Row": 5.0,
                    "MagpieData range Row": 2.0,
                    "MagpieData mean Row": 4.0,
                    "MagpieData avg_dev Row": 1.0,
                    "MagpieData mode Row": 3.0,
                    "MagpieData std_dev Row": 1.4142135623730951,
                    "MagpieData minimum CovalentRadius": 105.0,
                    "MagpieData maximum CovalentRadius": 144.0,
                    "MagpieData range CovalentRadius": 39.0,
                    "MagpieData mean CovalentRadius": 124.5,
                    "MagpieData avg_dev CovalentRadius": 19.5,
                    "MagpieData mode CovalentRadius": 105.0,
                    "MagpieData std_dev CovalentRadius": 27.577164466275352,
                    "MagpieData minimum Electronegativity": 1.69,
                    "MagpieData maximum Electronegativity": 2.58,
                    "MagpieData range Electronegativity": 0.8900000000000001,
                    "MagpieData mean Electronegativity": 2.135,
                    "MagpieData avg_dev Electronegativity": 0.44500000000000006,
                    "MagpieData mode Electronegativity": 1.69,
                    "MagpieData std_dev Electronegativity": 0.6293250352560273,
                    "MagpieData minimum NsValence": 2.0,
                    "MagpieData maximum NsValence": 2.0,
                    "MagpieData range NsValence": 0.0,
                    "MagpieData mean NsValence": 2.0,
                    "MagpieData avg_dev NsValence": 0.0,
                    "MagpieData mode NsValence": 2.0,
                    "MagpieData std_dev NsValence": 0.0,
                    "MagpieData minimum NpValence": 0.0,
                    "MagpieData maximum NpValence": 4.0,
                    "MagpieData range NpValence": 4.0,
                    "MagpieData mean NpValence": 2.0,
                    "MagpieData avg_dev NpValence": 2.0,
                    "MagpieData mode NpValence": 0.0,
                    "MagpieData std_dev NpValence": 2.8284271247461903,
                    "MagpieData minimum NdValence": 0.0,
                    "MagpieData maximum NdValence": 10.0,
                    "MagpieData range NdValence": 10.0,
                    "MagpieData mean NdValence": 5.0,
                    "MagpieData avg_dev NdValence": 5.0,
                    "MagpieData mode NdValence": 0.0,
                    "MagpieData std_dev NdValence": 7.0710678118654755,
                    "MagpieData minimum NfValence": 0.0,
                    "MagpieData maximum NfValence": 0.0,
                    "MagpieData range NfValence": 0.0,
                    "MagpieData mean NfValence": 0.0,
                    "MagpieData avg_dev NfValence": 0.0,
                    "MagpieData mode NfValence": 0.0,
                    "MagpieData std_dev NfValence": 0.0,
                    "MagpieData minimum NValence": 6.0,
                    "MagpieData maximum NValence": 12.0,
                    "MagpieData range NValence": 6.0,
                    "MagpieData mean NValence": 9.0,
                    "MagpieData avg_dev NValence": 3.0,
                    "MagpieData mode NValence": 6.0,
                    "MagpieData std_dev NValence": 4.242640687119285,
                    "MagpieData minimum NsUnfilled": 0.0,
                    "MagpieData maximum NsUnfilled": 0.0,
                    "MagpieData range NsUnfilled": 0.0,
                    "MagpieData mean NsUnfilled": 0.0,
                    "MagpieData avg_dev NsUnfilled": 0.0,
                    "MagpieData mode NsUnfilled": 0.0,
                    "MagpieData std_dev NsUnfilled": 0.0,
                    "MagpieData minimum NpUnfilled": 0.0,
                    "MagpieData maximum NpUnfilled": 2.0,
                    "MagpieData range NpUnfilled": 2.0,
                    "MagpieData mean NpUnfilled": 1.0,
                    "MagpieData avg_dev NpUnfilled": 1.0,
                    "MagpieData mode NpUnfilled": 0.0,
                    "MagpieData std_dev NpUnfilled": 1.4142135623730951,
                    "MagpieData minimum NdUnfilled": 0.0,
                    "MagpieData maximum NdUnfilled": 0.0,
                    "MagpieData range NdUnfilled": 0.0,
                    "MagpieData mean NdUnfilled": 0.0,
                    "MagpieData avg_dev NdUnfilled": 0.0,
                    "MagpieData mode NdUnfilled": 0.0,
                    "MagpieData std_dev NdUnfilled": 0.0,
                    "MagpieData minimum NfUnfilled": 0.0,
                    "MagpieData maximum NfUnfilled": 0.0,
                    "MagpieData range NfUnfilled": 0.0,
                    "MagpieData mean NfUnfilled": 0.0,
                    "MagpieData avg_dev NfUnfilled": 0.0,
                    "MagpieData mode NfUnfilled": 0.0,
                    "MagpieData std_dev NfUnfilled": 0.0,
                    "MagpieData minimum NUnfilled": 0.0,
                    "MagpieData maximum NUnfilled": 2.0,
                    "MagpieData range NUnfilled": 2.0,
                    "MagpieData mean NUnfilled": 1.0,
                    "MagpieData avg_dev NUnfilled": 1.0,
                    "MagpieData mode NUnfilled": 0.0,
                    "MagpieData std_dev NUnfilled": 1.4142135623730951,
                    "MagpieData minimum GSvolume_pa": 19.495,
                    "MagpieData maximum GSvolume_pa": 25.786875,
                    "MagpieData range GSvolume_pa": 6.291874999999997,
                    "MagpieData mean GSvolume_pa": 22.6409375,
                    "MagpieData avg_dev GSvolume_pa": 3.1459374999999987,
                    "MagpieData mode GSvolume_pa": 19.495,
                    "MagpieData std_dev GSvolume_pa": 4.449027478878107,
                    "MagpieData minimum GSbandgap": 0.0,
                    "MagpieData maximum GSbandgap": 2.202,
                    "MagpieData range GSbandgap": 2.202,
                    "MagpieData mean GSbandgap": 1.101,
                    "MagpieData avg_dev GSbandgap": 1.101,
                    "MagpieData mode GSbandgap": 0.0,
                    "MagpieData std_dev GSbandgap": 1.5570491321727775,
                    "MagpieData minimum GSmagmom": 0.0,
                    "MagpieData maximum GSmagmom": 0.0,
                    "MagpieData range GSmagmom": 0.0,
                    "MagpieData mean GSmagmom": 0.0,
                    "MagpieData avg_dev GSmagmom": 0.0,
                    "MagpieData mode GSmagmom": 0.0,
                    "MagpieData std_dev GSmagmom": 0.0,
                    "MagpieData minimum SpaceGroupNumber": 70.0,
                    "MagpieData maximum SpaceGroupNumber": 194.0,
                    "MagpieData range SpaceGroupNumber": 124.0,
                    "MagpieData mean SpaceGroupNumber": 132.0,
                    "MagpieData avg_dev SpaceGroupNumber": 62.0,
                    "MagpieData mode SpaceGroupNumber": 70.0,
                    "MagpieData std_dev SpaceGroupNumber": 87.68124086713189
                }
            }
        },
        {
            "substance_name": "titanium dioxide",
            "substance_type": "inorganic solid",
            "substance_descriptors": {
                "Number of Elements": 2,
                "Element Types": [
                    "O",
                    "Ti"
                ],
                "Number of Atoms in Unit Cell": 12,
                "Lattice Parameter a (\u00c5)": "4.59",
                "Lattice Parameter b (\u00c5)": "4.59",
                "Lattice Parameter c (\u00c5)": "2.96",
                "Lattice Angle alpha (degrees)": "90",
                "Lattice Angle beta (degrees)": "90",
                "Lattice Angle gamma (degrees)": "90",
                "Unit Cell Volume (\u00c5\u00b3)": 125.22506013556851,
                "Density (g/cm\u00b3)": 4.236221754389662,
                "Space Group Number": 136,
                "Band Gap (eV)": 1.7809999999999997,
                "Is Metallic (1/0)": 0,
                "Formation Energy per Atom (eV)": -3.3124930805555564,
                "Energy Above Hull (eV/atom)": 0.009526375000000087,
                "Energy per Atom (eV/atom)": -11.598845768333334,
                "Total Magnetization (\u03bcB)": 0.0,
                "Magnetic Ordering": "NM",
                "Bulk Modulus (GPa)": 208.538,
                "Shear Modulus (GPa)": 107.377,
                "Fermi Energy (eV)": 3.2964511,
                "Total Energy (eV)": -7.07832,
                "Crystal System": "tetragonal",
                "Magpie Descriptors": {
                    "MagpieData minimum Number": 8.0,
                    "MagpieData maximum Number": 22.0,
                    "MagpieData range Number": 14.0,
                    "MagpieData mean Number": 17.333333333333332,
                    "MagpieData avg_dev Number": 6.222222222222222,
                    "MagpieData mode Number": 22.0,
                    "MagpieData std_dev Number": 9.899494936611665,
                    "MagpieData minimum MendeleevNumber": 43.0,
                    "MagpieData maximum MendeleevNumber": 87.0,
                    "MagpieData range MendeleevNumber": 44.0,
                    "MagpieData mean MendeleevNumber": 57.666666666666664,
                    "MagpieData avg_dev MendeleevNumber": 19.555555555555554,
                    "MagpieData mode MendeleevNumber": 43.0,
                    "MagpieData std_dev MendeleevNumber": 31.11269837220809,
                    "MagpieData minimum AtomicWeight": 15.9994,
                    "MagpieData maximum AtomicWeight": 47.867,
                    "MagpieData range AtomicWeight": 31.867599999999996,
                    "MagpieData mean AtomicWeight": 37.24446666666667,
                    "MagpieData avg_dev AtomicWeight": 14.163377777777775,
                    "MagpieData mode AtomicWeight": 47.867,
                    "MagpieData std_dev AtomicWeight": 22.533796060140418,
                    "MagpieData minimum MeltingT": 54.8,
                    "MagpieData maximum MeltingT": 1941.0,
                    "MagpieData range MeltingT": 1886.2,
                    "MagpieData mean MeltingT": 1312.2666666666667,
                    "MagpieData avg_dev MeltingT": 838.3111111111111,
                    "MagpieData mode MeltingT": 1941.0,
                    "MagpieData std_dev MeltingT": 1333.7448106740658,
                    "MagpieData minimum Column": 4.0,
                    "MagpieData maximum Column": 16.0,
                    "MagpieData range Column": 12.0,
                    "MagpieData mean Column": 8.0,
                    "MagpieData avg_dev Column": 5.333333333333333,
                    "MagpieData mode Column": 4.0,
                    "MagpieData std_dev Column": 8.48528137423857,
                    "MagpieData minimum Row": 2.0,
                    "MagpieData maximum Row": 4.0,
                    "MagpieData range Row": 2.0,
                    "MagpieData mean Row": 3.333333333333333,
                    "MagpieData avg_dev Row": 0.888888888888889,
                    "MagpieData mode Row": 4.0,
                    "MagpieData std_dev Row": 1.4142135623730951,
                    "MagpieData minimum CovalentRadius": 66.0,
                    "MagpieData maximum CovalentRadius": 160.0,
                    "MagpieData range CovalentRadius": 94.0,
                    "MagpieData mean CovalentRadius": 128.66666666666666,
                    "MagpieData avg_dev CovalentRadius": 41.77777777777778,
                    "MagpieData mode CovalentRadius": 160.0,
                    "MagpieData std_dev CovalentRadius": 66.46803743153546,
                    "MagpieData minimum Electronegativity": 1.54,
                    "MagpieData maximum Electronegativity": 3.44,
                    "MagpieData range Electronegativity": 1.9,
                    "MagpieData mean Electronegativity": 2.173333333333333,
                    "MagpieData avg_dev Electronegativity": 0.8444444444444442,
                    "MagpieData mode Electronegativity": 1.54,
                    "MagpieData std_dev Electronegativity": 1.34350288425444,
                    "MagpieData minimum NsValence": 2.0,
                    "MagpieData maximum NsValence": 2.0,
                    "MagpieData range NsValence": 0.0,
                    "MagpieData mean NsValence": 2.0,
                    "MagpieData avg_dev NsValence": 0.0,
                    "MagpieData mode NsValence": 2.0,
                    "MagpieData std_dev NsValence": 0.0,
                    "MagpieData minimum NpValence": 0.0,
                    "MagpieData maximum NpValence": 4.0,
                    "MagpieData range NpValence": 4.0,
                    "MagpieData mean NpValence": 1.3333333333333333,
                    "MagpieData avg_dev NpValence": 1.7777777777777777,
                    "MagpieData mode NpValence": 0.0,
                    "MagpieData std_dev NpValence": 2.8284271247461903,
                    "MagpieData minimum NdValence": 0.0,
                    "MagpieData maximum NdValence": 2.0,
                    "MagpieData range NdValence": 2.0,
                    "MagpieData mean NdValence": 1.3333333333333333,
                    "MagpieData avg_dev NdValence": 0.8888888888888888,
                    "MagpieData mode NdValence": 2.0,
                    "MagpieData std_dev NdValence": 1.4142135623730951,
                    "MagpieData minimum NfValence": 0.0,
                    "MagpieData maximum NfValence": 0.0,
                    "MagpieData range NfValence": 0.0,
                    "MagpieData mean NfValence": 0.0,
                    "MagpieData avg_dev NfValence": 0.0,
                    "MagpieData mode NfValence": 0.0,
                    "MagpieData std_dev NfValence": 0.0,
                    "MagpieData minimum NValence": 4.0,
                    "MagpieData maximum NValence": 6.0,
                    "MagpieData range NValence": 2.0,
                    "MagpieData mean NValence": 4.666666666666666,
                    "MagpieData avg_dev NValence": 0.8888888888888886,
                    "MagpieData mode NValence": 4.0,
                    "MagpieData std_dev NValence": 1.4142135623730951,
                    "MagpieData minimum NsUnfilled": 0.0,
                    "MagpieData maximum NsUnfilled": 0.0,
                    "MagpieData range NsUnfilled": 0.0,
                    "MagpieData mean NsUnfilled": 0.0,
                    "MagpieData avg_dev NsUnfilled": 0.0,
                    "MagpieData mode NsUnfilled": 0.0,
                    "MagpieData std_dev NsUnfilled": 0.0,
                    "MagpieData minimum NpUnfilled": 0.0,
                    "MagpieData maximum NpUnfilled": 2.0,
                    "MagpieData range NpUnfilled": 2.0,
                    "MagpieData mean NpUnfilled": 0.6666666666666666,
                    "MagpieData avg_dev NpUnfilled": 0.8888888888888888,
                    "MagpieData mode NpUnfilled": 0.0,
                    "MagpieData std_dev NpUnfilled": 1.4142135623730951,
                    "MagpieData minimum NdUnfilled": 0.0,
                    "MagpieData maximum NdUnfilled": 8.0,
                    "MagpieData range NdUnfilled": 8.0,
                    "MagpieData mean NdUnfilled": 5.333333333333333,
                    "MagpieData avg_dev NdUnfilled": 3.5555555555555554,
                    "MagpieData mode NdUnfilled": 8.0,
                    "MagpieData std_dev NdUnfilled": 5.656854249492381,
                    "MagpieData minimum NfUnfilled": 0.0,
                    "MagpieData maximum NfUnfilled": 0.0,
                    "MagpieData range NfUnfilled": 0.0,
                    "MagpieData mean NfUnfilled": 0.0,
                    "MagpieData avg_dev NfUnfilled": 0.0,
                    "MagpieData mode NfUnfilled": 0.0,
                    "MagpieData std_dev NfUnfilled": 0.0,
                    "MagpieData minimum NUnfilled": 2.0,
                    "MagpieData maximum NUnfilled": 8.0,
                    "MagpieData range NUnfilled": 6.0,
                    "MagpieData mean NUnfilled": 6.0,
                    "MagpieData avg_dev NUnfilled": 2.6666666666666665,
                    "MagpieData mode NUnfilled": 8.0,
                    "MagpieData std_dev NUnfilled": 4.242640687119285,
                    "MagpieData minimum GSvolume_pa": 9.105,
                    "MagpieData maximum GSvolume_pa": 16.69,
                    "MagpieData range GSvolume_pa": 7.585000000000001,
                    "MagpieData mean GSvolume_pa": 14.161666666666667,
                    "MagpieData avg_dev GSvolume_pa": 3.3711111111111114,
                    "MagpieData mode GSvolume_pa": 16.69,
                    "MagpieData std_dev GSvolume_pa": 5.363404935299963,
                    "MagpieData minimum GSbandgap": 0.0,
                    "MagpieData maximum GSbandgap": 0.0,
                    "MagpieData range GSbandgap": 0.0,
                    "MagpieData mean GSbandgap": 0.0,
                    "MagpieData avg_dev GSbandgap": 0.0,
                    "MagpieData mode GSbandgap": 0.0,
                    "MagpieData std_dev GSbandgap": 0.0,
                    "MagpieData minimum GSmagmom": 0.0,
                    "MagpieData maximum GSmagmom": 2.25333333333e-05,
                    "MagpieData range GSmagmom": 2.25333333333e-05,
                    "MagpieData mean GSmagmom": 1.50222222222e-05,
                    "MagpieData avg_dev GSmagmom": 1.0014814814799999e-05,
                    "MagpieData mode GSmagmom": 2.25333333333e-05,
                    "MagpieData std_dev GSmagmom": 1.59334728027133e-05,
                    "MagpieData minimum SpaceGroupNumber": 12.0,
                    "MagpieData maximum SpaceGroupNumber": 194.0,
                    "MagpieData range SpaceGroupNumber": 182.0,
                    "MagpieData mean SpaceGroupNumber": 133.33333333333331,
                    "MagpieData avg_dev SpaceGroupNumber": 80.88888888888889,
                    "MagpieData mode SpaceGroupNumber": 194.0,
                    "MagpieData std_dev SpaceGroupNumber": 128.69343417595164
                }
            }
        }
    ],
    "test_operating_temperature_celsius": 27.5,
    "min_pH_when_testing": -1.0,
    "max_pH_when_testing": -1.0,
    "test_medium_electrolyte": [
        {
            "substance_name": "oxygen",
            "substance_type": "small molecule",
            "substance_descriptors": {
                "CID": 977,
                "MolecularFormula": "O2",
                "MolecularWeight": "31.999",
                "CanonicalSMILES": "O=O",
                "IsomericSMILES": "O=O",
                "InChI": "InChI=1S/O2/c1-2",
                "InChIKey": "MYMOFIZGZYHOMD-UHFFFAOYSA-N",
                "IUPACName": "molecular oxygen",
                "XLogP": -1.1,
                "ExactMass": "31.989829239",
                "MonoisotopicMass": "31.989829239",
                "TPSA": 34.1,
                "Complexity": 0,
                "Charge": 0,
                "HBondDonorCount": 0,
                "HBondAcceptorCount": 2,
                "RotatableBondCount": 0,
                "HeavyAtomCount": 2,
                "IsotopeAtomCount": 0,
                "AtomStereoCount": 0,
                "DefinedAtomStereoCount": 0,
                "UndefinedAtomStereoCount": 0,
                "BondStereoCount": 0,
                "DefinedBondStereoCount": 0,
                "UndefinedBondStereoCount": 0,
                "CovalentUnitCount": 1,
                "Volume3D": 22.9,
                "XStericQuadrupole3D": 0.87,
                "YStericQuadrupole3D": 0.49,
                "ZStericQuadrupole3D": 0.49,
                "FeatureAcceptorCount3D": 0,
                "FeatureDonorCount3D": 0,
                "FeatureAnionCount3D": 0,
                "FeatureCationCount3D": 0,
                "FeatureRingCount3D": 0,
                "FeatureHydrophobeCount3D": 0,
                "ConformerModelRMSD3D": 0.4,
                "EffectiveRotorCount3D": 0,
                "ConformerCount3D": 1,
                "Morgan_128": [
                    0,
                    0,
                    0,
                    0,
                    0,
                    0,
                    0,
                    0,
                    0,
                    0,
                    1,
                    0,
                    0,
                    0,
                    0,
                    0,
                    1,
                    0,
                    0,
                    0,
                    0,
                    0,
                    0,
                    0,
                    0,
                    0,
                    0,
                    0,
                    0,
                    0,
                    0,
                    0,
                    0,
                    0,
                    0,
                    0,
                    0,
                    0,
                    0,
                    0,
                    0,
                    0,
                    0,
                    0,
                    0,
                    0,
                    0,
                    0,
                    0,
                    0,
                    0,
                    0,
                    0,
                    0,
                    0,
                    0,
                    0,
                    0,
                    0,
                    0,
                    0,
                    0,
                    0,
                    0,
                    0,
                    0,
                    0,
                    0,
                    0,
                    0,
                    0,
                    0,
                    0,
                    0,
                    0,
                    0,
                    0,
                    0,
                    0,
                    0,
                    0,
                    0,
                    0,
                    0,
                    0,
                    0,
                    0,
                    0,
                    0,
                    0,
                    0,
                    0,
                    0,
                    0,
                    0,
                    0,
                    0,
                    0,
                    0,
                    0,
                    0,
                    0,
                    0,
                    0,
                    0,
                    0,
                    0,
                    0,
                    0,
                    0,
                    0,
                    0,
                    0,
                    0,
                    0,
                    0,
                    0,
                    0,
                    0,
                    0,
                    0,
                    0,
                    0,
                    0,
                    0,
                    0,
                    0,
                    0
                ]
            }
        },
        {
            "substance_name": "nitrogen",
            "substance_type": "small molecule",
            "substance_descriptors": {
                "CID": 947,
                "MolecularFormula": "N2",
                "MolecularWeight": "28.014",
                "CanonicalSMILES": "N#N",
                "IsomericSMILES": "N#N",
                "InChI": "InChI=1S/N2/c1-2",
                "InChIKey": "IJGRMHOSHXDMSA-UHFFFAOYSA-N",
                "IUPACName": "molecular nitrogen",
                "XLogP": 0.1,
                "ExactMass": "28.006148008",
                "MonoisotopicMass": "28.006148008",
                "TPSA": 47.6,
                "Complexity": 8,
                "Charge": 0,
                "HBondDonorCount": 0,
                "HBondAcceptorCount": 2,
                "RotatableBondCount": 0,
                "HeavyAtomCount": 2,
                "IsotopeAtomCount": 0,
                "AtomStereoCount": 0,
                "DefinedAtomStereoCount": 0,
                "UndefinedAtomStereoCount": 0,
                "BondStereoCount": 0,
                "DefinedBondStereoCount": 0,
                "UndefinedBondStereoCount": 0,
                "CovalentUnitCount": 1,
                "Volume3D": 23.1,
                "XStericQuadrupole3D": 0.82,
                "YStericQuadrupole3D": 0.51,
                "ZStericQuadrupole3D": 0.51,
                "FeatureAcceptorCount3D": 0,
                "FeatureDonorCount3D": 0,
                "FeatureAnionCount3D": 0,
                "FeatureCationCount3D": 0,
                "FeatureRingCount3D": 0,
                "FeatureHydrophobeCount3D": 0,
                "ConformerModelRMSD3D": 0.4,
                "EffectiveRotorCount3D": 0,
                "ConformerCount3D": 1,
                "Morgan_128": [
                    0,
                    0,
                    0,
                    0,
                    0,
                    0,
                    0,
                    0,
                    0,
                    0,
                    0,
                    0,
                    0,
                    0,
                    0,
                    0,
                    0,
                    0,
                    0,
                    0,
                    0,
                    0,
                    0,
                    0,
                    0,
                    0,
                    0,
                    0,
                    0,
                    0,
                    0,
                    0,
                    0,
                    0,
                    0,
                    0,
                    0,
                    0,
                    0,
                    0,
                    0,
                    0,
                    0,
                    0,
                    0,
                    0,
                    0,
                    0,
                    0,
                    0,
                    0,
                    0,
                    0,
                    0,
                    0,
                    0,
                    0,
                    0,
                    0,
                    0,
                    0,
                    0,
                    0,
                    0,
                    0,
                    0,
                    0,
                    0,
                    0,
                    0,
                    0,
                    0,
                    0,
                    0,
                    0,
                    0,
                    1,
                    0,
                    0,
                    0,
                    0,
                    0,
                    0,
                    0,
                    0,
                    0,
                    0,
                    0,
                    0,
                    0,
                    0,
                    0,
                    0,
                    0,
                    0,
                    0,
                    0,
                    0,
                    0,
                    0,
                    0,
                    0,
                    0,
                    0,
                    1,
                    0,
                    0,
                    0,
                    0,
                    0,
                    0,
                    0,
                    0,
                    0,
                    0,
                    0,
                    0,
                    0,
                    0,
                    0,
                    0,
                    0,
                    0,
                    0,
                    0,
                    0,
                    0,
                    0
                ]
            }
        }
    ],
    "LDL_ranking": 1.0,
    "UDL_ranking": 1.0,
    "LDL_category": "High Detection (Lower Sensitivity)",
    "UDL_category": "Moderate UDL Range"
}