{
    "DOI": "10.1021/acsami.0c08555",
    "sensor_type": "liquid",
    "detect_target": [
        {
            "substance_name": "hydrogen peroxide",
            "substance_type": "small molecule",
            "substance_descriptors": {
                "CID": 784,
                "MolecularFormula": "H2O2",
                "MolecularWeight": "34.015",
                "CanonicalSMILES": "OO",
                "IsomericSMILES": "OO",
                "InChI": "InChI=1S/H2O2/c1-2/h1-2H",
                "InChIKey": "MHAJPDPJQMAIIY-UHFFFAOYSA-N",
                "IUPACName": "hydrogen peroxide",
                "XLogP": -0.9,
                "ExactMass": "34.005479302",
                "MonoisotopicMass": "34.005479302",
                "TPSA": 40.5,
                "Complexity": 0,
                "Charge": 0,
                "HBondDonorCount": 2,
                "HBondAcceptorCount": 2,
                "RotatableBondCount": 0,
                "HeavyAtomCount": 2,
                "IsotopeAtomCount": 0,
                "AtomStereoCount": 0,
                "DefinedAtomStereoCount": 0,
                "UndefinedAtomStereoCount": 0,
                "BondStereoCount": 0,
                "DefinedBondStereoCount": 0,
                "UndefinedBondStereoCount": 0,
                "CovalentUnitCount": 1,
                "Volume3D": 24.6,
                "XStericQuadrupole3D": 1.02,
                "YStericQuadrupole3D": 0.49,
                "ZStericQuadrupole3D": 0.49,
                "FeatureAcceptorCount3D": 0,
                "FeatureDonorCount3D": 0,
                "FeatureAnionCount3D": 0,
                "FeatureCationCount3D": 0,
                "FeatureRingCount3D": 0,
                "FeatureHydrophobeCount3D": 0,
                "ConformerModelRMSD3D": 0.4,
                "EffectiveRotorCount3D": 0,
                "ConformerCount3D": 1,
                "Morgan_128": [
                    0,
                    0,
                    0,
                    0,
                    0,
                    1,
                    0,
                    0,
                    0,
                    0,
                    0,
                    0,
                    0,
                    0,
                    0,
                    0,
                    0,
                    0,
                    0,
                    0,
                    0,
                    0,
                    0,
                    0,
                    0,
                    0,
                    0,
                    0,
                    0,
                    0,
                    0,
                    0,
                    0,
                    0,
                    0,
                    0,
                    0,
                    0,
                    0,
                    1,
                    0,
                    0,
                    0,
                    0,
                    0,
                    0,
                    0,
                    0,
                    0,
                    0,
                    0,
                    0,
                    0,
                    0,
                    0,
                    0,
                    0,
                    0,
                    0,
                    0,
                    0,
                    0,
                    0,
                    0,
                    0,
                    0,
                    0,
                    0,
                    0,
                    0,
                    0,
                    0,
                    0,
                    0,
                    0,
                    0,
                    0,
                    0,
                    0,
                    0,
                    0,
                    0,
                    0,
                    0,
                    0,
                    0,
                    0,
                    0,
                    0,
                    0,
                    0,
                    0,
                    0,
                    0,
                    0,
                    0,
                    0,
                    0,
                    0,
                    0,
                    0,
                    0,
                    0,
                    0,
                    0,
                    0,
                    0,
                    0,
                    0,
                    0,
                    0,
                    0,
                    0,
                    0,
                    0,
                    0,
                    0,
                    0,
                    0,
                    0,
                    0,
                    0,
                    0,
                    0,
                    0,
                    0,
                    0,
                    0
                ]
            }
        }
    ],
    "lower_detection_limit_log_ppm": -2.468393368,
    "upper_detection_limit_log_ppm": null,
    "probe_material": [
        {
            "substance_name": "boron carbon nitride",
            "substance_type": "inorganic solid",
            "substance_descriptors": {
                "Number of Elements": 3,
                "Element Types": [
                    "C",
                    "B",
                    "N"
                ],
                "Number of Atoms in Unit Cell": 4,
                "Lattice Parameter a (\u00c5)": 2.5751419441953507,
                "Lattice Parameter b (\u00c5)": 2.5751419441953507,
                "Lattice Parameter c (\u00c5)": 4.434726117937269,
                "Lattice Angle alpha (degrees)": 90.0,
                "Lattice Angle beta (degrees)": 90.0,
                "Lattice Angle gamma (degrees)": 119.99999531604843,
                "Unit Cell Volume (\u00c5\u00b3)": 25.41297499172639,
                "Density (g/cm\u00b3)": 3.1128620256045836,
                "Space Group Number": 156,
                "Is Metallic (1/0)": 1,
                "Band Gap (eV)": 0.0,
                "Formation Energy per Atom (eV)": -0.41219747770833237,
                "Energy Above Hull (eV/atom)": 0.35225665755208624,
                "Energy per Atom (eV/atom)": -8.143629172499999,
                "Total Magnetization (\u03bcB)": 0.0024116,
                "Magnetic Ordering": "NM",
                "Bulk Modulus (GPa)": 322.966,
                "Shear Modulus (GPa)": 226.252,
                "Fermi Energy (eV)": 7.93336824,
                "Total Energy (eV)": -7.12661,
                "Crystal System": "trigonal",
                "Magpie Descriptors": {
                    "MagpieData minimum Number": 5.0,
                    "MagpieData maximum Number": 7.0,
                    "MagpieData range Number": 2.0,
                    "MagpieData mean Number": 6.0,
                    "MagpieData avg_dev Number": 0.5,
                    "MagpieData mode Number": 6.0,
                    "MagpieData std_dev Number": 0.8944271909999159,
                    "MagpieData minimum MendeleevNumber": 72.0,
                    "MagpieData maximum MendeleevNumber": 82.0,
                    "MagpieData range MendeleevNumber": 10.0,
                    "MagpieData mean MendeleevNumber": 77.0,
                    "MagpieData avg_dev MendeleevNumber": 2.5,
                    "MagpieData mode MendeleevNumber": 77.0,
                    "MagpieData std_dev MendeleevNumber": 4.47213595499958,
                    "MagpieData minimum AtomicWeight": 10.811,
                    "MagpieData maximum AtomicWeight": 14.0067,
                    "MagpieData range AtomicWeight": 3.1957000000000004,
                    "MagpieData mean AtomicWeight": 12.209775,
                    "MagpieData avg_dev AtomicWeight": 0.8984625000000004,
                    "MagpieData mode AtomicWeight": 12.0107,
                    "MagpieData std_dev AtomicWeight": 1.4511750642152035,
                    "MagpieData minimum MeltingT": 63.05,
                    "MagpieData maximum MeltingT": 3823.0,
                    "MagpieData range MeltingT": 3759.95,
                    "MagpieData mean MeltingT": 2514.2625,
                    "MagpieData avg_dev MeltingT": 1308.7375,
                    "MagpieData mode MeltingT": 3823.0,
                    "MagpieData std_dev MeltingT": 1945.4226920517815,
                    "MagpieData minimum Column": 13.0,
                    "MagpieData maximum Column": 15.0,
                    "MagpieData range Column": 2.0,
                    "MagpieData mean Column": 14.0,
                    "MagpieData avg_dev Column": 0.5,
                    "MagpieData mode Column": 14.0,
                    "MagpieData std_dev Column": 0.8944271909999159,
                    "MagpieData minimum Row": 2.0,
                    "MagpieData maximum Row": 2.0,
                    "MagpieData range Row": 0.0,
                    "MagpieData mean Row": 2.0,
                    "MagpieData avg_dev Row": 0.0,
                    "MagpieData mode Row": 2.0,
                    "MagpieData std_dev Row": 0.0,
                    "MagpieData minimum CovalentRadius": 71.0,
                    "MagpieData maximum CovalentRadius": 84.0,
                    "MagpieData range CovalentRadius": 13.0,
                    "MagpieData mean CovalentRadius": 76.75,
                    "MagpieData avg_dev CovalentRadius": 3.625,
                    "MagpieData mode CovalentRadius": 76.0,
                    "MagpieData std_dev CovalentRadius": 5.890670590009257,
                    "MagpieData minimum Electronegativity": 2.04,
                    "MagpieData maximum Electronegativity": 3.04,
                    "MagpieData range Electronegativity": 1.0,
                    "MagpieData mean Electronegativity": 2.545,
                    "MagpieData avg_dev Electronegativity": 0.25249999999999995,
                    "MagpieData mode Electronegativity": 2.55,
                    "MagpieData std_dev Electronegativity": 0.44725831462366356,
                    "MagpieData minimum NsValence": 2.0,
                    "MagpieData maximum NsValence": 2.0,
                    "MagpieData range NsValence": 0.0,
                    "MagpieData mean NsValence": 2.0,
                    "MagpieData avg_dev NsValence": 0.0,
                    "MagpieData mode NsValence": 2.0,
                    "MagpieData std_dev NsValence": 0.0,
                    "MagpieData minimum NpValence": 1.0,
                    "MagpieData maximum NpValence": 3.0,
                    "MagpieData range NpValence": 2.0,
                    "MagpieData mean NpValence": 2.0,
                    "MagpieData avg_dev NpValence": 0.5,
                    "MagpieData mode NpValence": 2.0,
                    "MagpieData std_dev NpValence": 0.8944271909999159,
                    "MagpieData minimum NdValence": 0.0,
                    "MagpieData maximum NdValence": 0.0,
                    "MagpieData range NdValence": 0.0,
                    "MagpieData mean NdValence": 0.0,
                    "MagpieData avg_dev NdValence": 0.0,
                    "MagpieData mode NdValence": 0.0,
                    "MagpieData std_dev NdValence": 0.0,
                    "MagpieData minimum NfValence": 0.0,
                    "MagpieData maximum NfValence": 0.0,
                    "MagpieData range NfValence": 0.0,
                    "MagpieData mean NfValence": 0.0,
                    "MagpieData avg_dev NfValence": 0.0,
                    "MagpieData mode NfValence": 0.0,
                    "MagpieData std_dev NfValence": 0.0,
                    "MagpieData minimum NValence": 3.0,
                    "MagpieData maximum NValence": 5.0,
                    "MagpieData range NValence": 2.0,
                    "MagpieData mean NValence": 4.0,
                    "MagpieData avg_dev NValence": 0.5,
                    "MagpieData mode NValence": 4.0,
                    "MagpieData std_dev NValence": 0.8944271909999159,
                    "MagpieData minimum NsUnfilled": 0.0,
                    "MagpieData maximum NsUnfilled": 0.0,
                    "MagpieData range NsUnfilled": 0.0,
                    "MagpieData mean NsUnfilled": 0.0,
                    "MagpieData avg_dev NsUnfilled": 0.0,
                    "MagpieData mode NsUnfilled": 0.0,
                    "MagpieData std_dev NsUnfilled": 0.0,
                    "MagpieData minimum NpUnfilled": 3.0,
                    "MagpieData maximum NpUnfilled": 5.0,
                    "MagpieData range NpUnfilled": 2.0,
                    "MagpieData mean NpUnfilled": 4.0,
                    "MagpieData avg_dev NpUnfilled": 0.5,
                    "MagpieData mode NpUnfilled": 4.0,
                    "MagpieData std_dev NpUnfilled": 0.8944271909999159,
                    "MagpieData minimum NdUnfilled": 0.0,
                    "MagpieData maximum NdUnfilled": 0.0,
                    "MagpieData range NdUnfilled": 0.0,
                    "MagpieData mean NdUnfilled": 0.0,
                    "MagpieData avg_dev NdUnfilled": 0.0,
                    "MagpieData mode NdUnfilled": 0.0,
                    "MagpieData std_dev NdUnfilled": 0.0,
                    "MagpieData minimum NfUnfilled": 0.0,
                    "MagpieData maximum NfUnfilled": 0.0,
                    "MagpieData range NfUnfilled": 0.0,
                    "MagpieData mean NfUnfilled": 0.0,
                    "MagpieData avg_dev NfUnfilled": 0.0,
                    "MagpieData mode NfUnfilled": 0.0,
                    "MagpieData std_dev NfUnfilled": 0.0,
                    "MagpieData minimum NUnfilled": 3.0,
                    "MagpieData maximum NUnfilled": 5.0,
                    "MagpieData range NUnfilled": 2.0,
                    "MagpieData mean NUnfilled": 4.0,
                    "MagpieData avg_dev NUnfilled": 0.5,
                    "MagpieData mode NUnfilled": 4.0,
                    "MagpieData std_dev NUnfilled": 0.8944271909999159,
                    "MagpieData minimum GSvolume_pa": 5.64,
                    "MagpieData maximum GSvolume_pa": 14.76875,
                    "MagpieData range GSvolume_pa": 9.12875,
                    "MagpieData mean GSvolume_pa": 8.3053125,
                    "MagpieData avg_dev GSvolume_pa": 3.2317187499999998,
                    "MagpieData mode GSvolume_pa": 5.64,
                    "MagpieData std_dev GSvolume_pa": 4.786107809979838,
                    "MagpieData minimum GSbandgap": 1.524,
                    "MagpieData maximum GSbandgap": 6.437,
                    "MagpieData range GSbandgap": 4.913,
                    "MagpieData mean GSbandgap": 4.238250000000001,
                    "MagpieData avg_dev GSbandgap": 1.357125,
                    "MagpieData mode GSbandgap": 4.496,
                    "MagpieData std_dev GSbandgap": 2.2212181117576004,
                    "MagpieData minimum GSmagmom": 0.0,
                    "MagpieData maximum GSmagmom": 0.0,
                    "MagpieData range GSmagmom": 0.0,
                    "MagpieData mean GSmagmom": 0.0,
                    "MagpieData avg_dev GSmagmom": 0.0,
                    "MagpieData mode GSmagmom": 0.0,
                    "MagpieData std_dev GSmagmom": 0.0,
                    "MagpieData minimum SpaceGroupNumber": 166.0,
                    "MagpieData maximum SpaceGroupNumber": 194.0,
                    "MagpieData range SpaceGroupNumber": 28.0,
                    "MagpieData mean SpaceGroupNumber": 187.0,
                    "MagpieData avg_dev SpaceGroupNumber": 10.5,
                    "MagpieData mode SpaceGroupNumber": 194.0,
                    "MagpieData std_dev SpaceGroupNumber": 15.336231610144651
                }
            }
        }
    ],
    "test_operating_temperature_celsius": 27.5,
    "min_pH_when_testing": 6.5,
    "max_pH_when_testing": 6.5,
    "test_medium_electrolyte": [
        {
            "substance_name": "water",
            "substance_type": "small molecule",
            "substance_descriptors": {
                "CID": 962,
                "MolecularFormula": "H2O",
                "MolecularWeight": "18.015",
                "CanonicalSMILES": "O",
                "IsomericSMILES": "O",
                "InChI": "InChI=1S/H2O/h1H2",
                "InChIKey": "XLYOFNOQVPJJNP-UHFFFAOYSA-N",
                "IUPACName": "oxidane",
                "XLogP": -0.5,
                "ExactMass": "18.010564683",
                "MonoisotopicMass": "18.010564683",
                "TPSA": 1,
                "Complexity": 0,
                "Charge": 0,
                "HBondDonorCount": 1,
                "HBondAcceptorCount": 1,
                "RotatableBondCount": 0,
                "HeavyAtomCount": 1,
                "IsotopeAtomCount": 0,
                "AtomStereoCount": 0,
                "DefinedAtomStereoCount": 0,
                "UndefinedAtomStereoCount": 0,
                "BondStereoCount": 0,
                "DefinedBondStereoCount": 0,
                "UndefinedBondStereoCount": 0,
                "CovalentUnitCount": 1,
                "Volume3D": 14.7,
                "XStericQuadrupole3D": 0.49,
                "YStericQuadrupole3D": 0.49,
                "ZStericQuadrupole3D": 0.49,
                "FeatureAcceptorCount3D": 1,
                "FeatureDonorCount3D": 1,
                "FeatureAnionCount3D": 0,
                "FeatureCationCount3D": 0,
                "FeatureRingCount3D": 0,
                "FeatureHydrophobeCount3D": 0,
                "ConformerModelRMSD3D": 0.4,
                "EffectiveRotorCount3D": 0,
                "ConformerCount3D": 1,
                "Morgan_128": [
                    0,
                    0,
                    0,
                    0,
                    0,
                    0,
                    0,
                    0,
                    0,
                    0,
                    0,
                    0,
                    0,
                    0,
                    0,
                    0,
                    0,
                    0,
                    0,
                    0,
                    0,
                    0,
                    1,
                    0,
                    0,
                    0,
                    0,
                    0,
                    0,
                    0,
                    0,
                    0,
                    0,
                    0,
                    0,
                    0,
                    0,
                    0,
                    0,
                    0,
                    0,
                    0,
                    0,
                    0,
                    0,
                    0,
                    0,
                    0,
                    0,
                    0,
                    0,
                    0,
                    0,
                    0,
                    0,
                    0,
                    0,
                    0,
                    0,
                    0,
                    0,
                    0,
                    0,
                    0,
                    0,
                    0,
                    0,
                    0,
                    0,
                    0,
                    0,
                    0,
                    0,
                    0,
                    0,
                    0,
                    0,
                    0,
                    0,
                    0,
                    0,
                    0,
                    0,
                    0,
                    0,
                    0,
                    0,
                    0,
                    0,
                    0,
                    0,
                    0,
                    0,
                    0,
                    0,
                    0,
                    0,
                    0,
                    0,
                    0,
                    0,
                    0,
                    0,
                    0,
                    0,
                    0,
                    0,
                    0,
                    0,
                    0,
                    0,
                    0,
                    0,
                    0,
                    0,
                    0,
                    0,
                    0,
                    0,
                    0,
                    0,
                    0,
                    0,
                    0,
                    0,
                    0,
                    0,
                    0
                ]
            }
        }
    ],
    "LDL_ranking": 1.0,
    "UDL_ranking": null,
    "LDL_category": "Moderate Detection",
    "UDL_category": null
}