{
    "DOI": "10.1016/j.apsusc.2020.146709",
    "sensor_type": "gas",
    "detect_target": [
        {
            "substance_name": "ammonia",
            "substance_type": "small molecule",
            "substance_descriptors": {
                "CID": 222,
                "MolecularFormula": "H3N",
                "MolecularWeight": "17.031",
                "CanonicalSMILES": "N",
                "IsomericSMILES": "N",
                "InChI": "InChI=1S/H3N/h1H3",
                "InChIKey": "QGZKDVFQNNGYKY-UHFFFAOYSA-N",
                "IUPACName": "azane",
                "XLogP": -0.7,
                "ExactMass": "17.026549100",
                "MonoisotopicMass": "17.026549100",
                "TPSA": 1,
                "Complexity": 0,
                "Charge": 0,
                "HBondDonorCount": 1,
                "HBondAcceptorCount": 1,
                "RotatableBondCount": 0,
                "HeavyAtomCount": 1,
                "IsotopeAtomCount": 0,
                "AtomStereoCount": 0,
                "DefinedAtomStereoCount": 0,
                "UndefinedAtomStereoCount": 0,
                "BondStereoCount": 0,
                "DefinedBondStereoCount": 0,
                "UndefinedBondStereoCount": 0,
                "CovalentUnitCount": 1,
                "Volume3D": 15.6,
                "XStericQuadrupole3D": 0.51,
                "YStericQuadrupole3D": 0.51,
                "ZStericQuadrupole3D": 0.51,
                "FeatureAcceptorCount3D": 0,
                "FeatureDonorCount3D": 0,
                "FeatureAnionCount3D": 0,
                "FeatureCationCount3D": 1,
                "FeatureRingCount3D": 0,
                "FeatureHydrophobeCount3D": 0,
                "ConformerModelRMSD3D": 0.4,
                "EffectiveRotorCount3D": 0,
                "ConformerCount3D": 1,
                "Morgan_128": [
                    0,
                    0,
                    0,
                    0,
                    0,
                    0,
                    0,
                    0,
                    0,
                    0,
                    0,
                    0,
                    0,
                    0,
                    0,
                    0,
                    0,
                    0,
                    0,
                    0,
                    0,
                    0,
                    0,
                    0,
                    0,
                    0,
                    0,
                    0,
                    0,
                    0,
                    0,
                    0,
                    0,
                    0,
                    1,
                    0,
                    0,
                    0,
                    0,
                    0,
                    0,
                    0,
                    0,
                    0,
                    0,
                    0,
                    0,
                    0,
                    0,
                    0,
                    0,
                    0,
                    0,
                    0,
                    0,
                    0,
                    0,
                    0,
                    0,
                    0,
                    0,
                    0,
                    0,
                    0,
                    0,
                    0,
                    0,
                    0,
                    0,
                    0,
                    0,
                    0,
                    0,
                    0,
                    0,
                    0,
                    0,
                    0,
                    0,
                    0,
                    0,
                    0,
                    0,
                    0,
                    0,
                    0,
                    0,
                    0,
                    0,
                    0,
                    0,
                    0,
                    0,
                    0,
                    0,
                    0,
                    0,
                    0,
                    0,
                    0,
                    0,
                    0,
                    0,
                    0,
                    0,
                    0,
                    0,
                    0,
                    0,
                    0,
                    0,
                    0,
                    0,
                    0,
                    0,
                    0,
                    0,
                    0,
                    0,
                    0,
                    0,
                    0,
                    0,
                    0,
                    0,
                    0,
                    0,
                    0
                ]
            }
        }
    ],
    "lower_detection_limit_log_ppm": 1.0,
    "upper_detection_limit_log_ppm": 3.477121255,
    "probe_material": [
        {
            "substance_name": "molybdenum disulfide",
            "substance_type": "inorganic solid",
            "substance_descriptors": {
                "Number of Elements": 2,
                "Element Types": [
                    "Mo",
                    "S"
                ],
                "Number of Atoms in Unit Cell": 6,
                "Lattice Parameter a (\u00c5)": "3.169",
                "Lattice Parameter b (\u00c5)": "3.169",
                "Lattice Parameter c (\u00c5)": "12.324",
                "Lattice Angle alpha (degrees)": "90",
                "Lattice Angle beta (degrees)": "90",
                "Lattice Angle gamma (degrees)": "120",
                "Unit Cell Volume (\u00c5\u00b3)": 118.06518764862204,
                "Density (g/cm\u00b3)": 4.502639494068752,
                "Space Group Number": 194,
                "Band Gap (eV)": 1.4648999999999996,
                "Is Metallic (1/0)": 0,
                "Formation Energy per Atom (eV)": -0.9638085802083344,
                "Energy Above Hull (eV/atom)": 0.0016927283333316723,
                "Energy per Atom (eV/atom)": -15.011134448333335,
                "Total Magnetization (\u03bcB)": 0.0,
                "Magnetic Ordering": "NM",
                "Bulk Modulus (GPa)": 25.575,
                "Shear Modulus (GPa)": 18.973,
                "Fermi Energy (eV)": 3.87623833,
                "Total Energy (eV)": -5.28729,
                "Crystal System": "hexagonal",
                "Magpie Descriptors": {
                    "MagpieData minimum Number": 16.0,
                    "MagpieData maximum Number": 42.0,
                    "MagpieData range Number": 26.0,
                    "MagpieData mean Number": 24.666666666666664,
                    "MagpieData avg_dev Number": 11.555555555555554,
                    "MagpieData mode Number": 16.0,
                    "MagpieData std_dev Number": 18.384776310850235,
                    "MagpieData minimum MendeleevNumber": 50.0,
                    "MagpieData maximum MendeleevNumber": 88.0,
                    "MagpieData range MendeleevNumber": 38.0,
                    "MagpieData mean MendeleevNumber": 75.33333333333333,
                    "MagpieData avg_dev MendeleevNumber": 16.88888888888889,
                    "MagpieData mode MendeleevNumber": 88.0,
                    "MagpieData std_dev MendeleevNumber": 26.870057685088803,
                    "MagpieData minimum AtomicWeight": 32.065,
                    "MagpieData maximum AtomicWeight": 95.96,
                    "MagpieData range AtomicWeight": 63.894999999999996,
                    "MagpieData mean AtomicWeight": 53.36333333333333,
                    "MagpieData avg_dev AtomicWeight": 28.397777777777776,
                    "MagpieData mode AtomicWeight": 32.065,
                    "MagpieData std_dev AtomicWeight": 45.18058778391445,
                    "MagpieData minimum MeltingT": 388.36,
                    "MagpieData maximum MeltingT": 2896.0,
                    "MagpieData range MeltingT": 2507.64,
                    "MagpieData mean MeltingT": 1224.2399999999998,
                    "MagpieData avg_dev MeltingT": 1114.5066666666664,
                    "MagpieData mode MeltingT": 388.36,
                    "MagpieData std_dev MeltingT": 1773.169248774634,
                    "MagpieData minimum Column": 6.0,
                    "MagpieData maximum Column": 16.0,
                    "MagpieData range Column": 10.0,
                    "MagpieData mean Column": 12.666666666666666,
                    "MagpieData avg_dev Column": 4.444444444444445,
                    "MagpieData mode Column": 16.0,
                    "MagpieData std_dev Column": 7.0710678118654755,
                    "MagpieData minimum Row": 3.0,
                    "MagpieData maximum Row": 5.0,
                    "MagpieData range Row": 2.0,
                    "MagpieData mean Row": 3.6666666666666665,
                    "MagpieData avg_dev Row": 0.8888888888888888,
                    "MagpieData mode Row": 3.0,
                    "MagpieData std_dev Row": 1.4142135623730951,
                    "MagpieData minimum CovalentRadius": 105.0,
                    "MagpieData maximum CovalentRadius": 154.0,
                    "MagpieData range CovalentRadius": 49.0,
                    "MagpieData mean CovalentRadius": 121.33333333333333,
                    "MagpieData avg_dev CovalentRadius": 21.777777777777775,
                    "MagpieData mode CovalentRadius": 105.0,
                    "MagpieData std_dev CovalentRadius": 34.648232278140824,
                    "MagpieData minimum Electronegativity": 2.16,
                    "MagpieData maximum Electronegativity": 2.58,
                    "MagpieData range Electronegativity": 0.41999999999999993,
                    "MagpieData mean Electronegativity": 2.44,
                    "MagpieData avg_dev Electronegativity": 0.18666666666666668,
                    "MagpieData mode Electronegativity": 2.58,
                    "MagpieData std_dev Electronegativity": 0.2969848480983499,
                    "MagpieData minimum NsValence": 1.0,
                    "MagpieData maximum NsValence": 2.0,
                    "MagpieData range NsValence": 1.0,
                    "MagpieData mean NsValence": 1.6666666666666665,
                    "MagpieData avg_dev NsValence": 0.4444444444444445,
                    "MagpieData mode NsValence": 2.0,
                    "MagpieData std_dev NsValence": 0.7071067811865476,
                    "MagpieData minimum NpValence": 0.0,
                    "MagpieData maximum NpValence": 4.0,
                    "MagpieData range NpValence": 4.0,
                    "MagpieData mean NpValence": 2.6666666666666665,
                    "MagpieData avg_dev NpValence": 1.7777777777777777,
                    "MagpieData mode NpValence": 4.0,
                    "MagpieData std_dev NpValence": 2.8284271247461903,
                    "MagpieData minimum NdValence": 0.0,
                    "MagpieData maximum NdValence": 5.0,
                    "MagpieData range NdValence": 5.0,
                    "MagpieData mean NdValence": 1.6666666666666665,
                    "MagpieData avg_dev NdValence": 2.2222222222222223,
                    "MagpieData mode NdValence": 0.0,
                    "MagpieData std_dev NdValence": 3.5355339059327378,
                    "MagpieData minimum NfValence": 0.0,
                    "MagpieData maximum NfValence": 0.0,
                    "MagpieData range NfValence": 0.0,
                    "MagpieData mean NfValence": 0.0,
                    "MagpieData avg_dev NfValence": 0.0,
                    "MagpieData mode NfValence": 0.0,
                    "MagpieData std_dev NfValence": 0.0,
                    "MagpieData minimum NValence": 6.0,
                    "MagpieData maximum NValence": 6.0,
                    "MagpieData range NValence": 0.0,
                    "MagpieData mean NValence": 6.0,
                    "MagpieData avg_dev NValence": 0.0,
                    "MagpieData mode NValence": 6.0,
                    "MagpieData std_dev NValence": 0.0,
                    "MagpieData minimum NsUnfilled": 0.0,
                    "MagpieData maximum NsUnfilled": 1.0,
                    "MagpieData range NsUnfilled": 1.0,
                    "MagpieData mean NsUnfilled": 0.3333333333333333,
                    "MagpieData avg_dev NsUnfilled": 0.4444444444444444,
                    "MagpieData mode NsUnfilled": 0.0,
                    "MagpieData std_dev NsUnfilled": 0.7071067811865476,
                    "MagpieData minimum NpUnfilled": 0.0,
                    "MagpieData maximum NpUnfilled": 2.0,
                    "MagpieData range NpUnfilled": 2.0,
                    "MagpieData mean NpUnfilled": 1.3333333333333333,
                    "MagpieData avg_dev NpUnfilled": 0.8888888888888888,
                    "MagpieData mode NpUnfilled": 2.0,
                    "MagpieData std_dev NpUnfilled": 1.4142135623730951,
                    "MagpieData minimum NdUnfilled": 0.0,
                    "MagpieData maximum NdUnfilled": 5.0,
                    "MagpieData range NdUnfilled": 5.0,
                    "MagpieData mean NdUnfilled": 1.6666666666666665,
                    "MagpieData avg_dev NdUnfilled": 2.2222222222222223,
                    "MagpieData mode NdUnfilled": 0.0,
                    "MagpieData std_dev NdUnfilled": 3.5355339059327378,
                    "MagpieData minimum NfUnfilled": 0.0,
                    "MagpieData maximum NfUnfilled": 0.0,
                    "MagpieData range NfUnfilled": 0.0,
                    "MagpieData mean NfUnfilled": 0.0,
                    "MagpieData avg_dev NfUnfilled": 0.0,
                    "MagpieData mode NfUnfilled": 0.0,
                    "MagpieData std_dev NfUnfilled": 0.0,
                    "MagpieData minimum NUnfilled": 2.0,
                    "MagpieData maximum NUnfilled": 6.0,
                    "MagpieData range NUnfilled": 4.0,
                    "MagpieData mean NUnfilled": 3.333333333333333,
                    "MagpieData avg_dev NUnfilled": 1.7777777777777777,
                    "MagpieData mode NUnfilled": 2.0,
                    "MagpieData std_dev NUnfilled": 2.8284271247461903,
                    "MagpieData minimum GSvolume_pa": 15.69,
                    "MagpieData maximum GSvolume_pa": 25.786875,
                    "MagpieData range GSvolume_pa": 10.096874999999999,
                    "MagpieData mean GSvolume_pa": 22.421249999999997,
                    "MagpieData avg_dev GSvolume_pa": 4.4875,
                    "MagpieData mode GSvolume_pa": 25.786875,
                    "MagpieData std_dev GSvolume_pa": 7.139568781292921,
                    "MagpieData minimum GSbandgap": 0.0,
                    "MagpieData maximum GSbandgap": 2.202,
                    "MagpieData range GSbandgap": 2.202,
                    "MagpieData mean GSbandgap": 1.468,
                    "MagpieData avg_dev GSbandgap": 0.9786666666666666,
                    "MagpieData mode GSbandgap": 2.202,
                    "MagpieData std_dev GSbandgap": 1.5570491321727777,
                    "MagpieData minimum GSmagmom": 0.0,
                    "MagpieData maximum GSmagmom": 0.0,
                    "MagpieData range GSmagmom": 0.0,
                    "MagpieData mean GSmagmom": 0.0,
                    "MagpieData avg_dev GSmagmom": 0.0,
                    "MagpieData mode GSmagmom": 0.0,
                    "MagpieData std_dev GSmagmom": 0.0,
                    "MagpieData minimum SpaceGroupNumber": 70.0,
                    "MagpieData maximum SpaceGroupNumber": 229.0,
                    "MagpieData range SpaceGroupNumber": 159.0,
                    "MagpieData mean SpaceGroupNumber": 123.0,
                    "MagpieData avg_dev SpaceGroupNumber": 70.66666666666666,
                    "MagpieData mode SpaceGroupNumber": 70.0,
                    "MagpieData std_dev SpaceGroupNumber": 112.42997820866105
                }
            }
        }
    ],
    "test_operating_temperature_celsius": 22.5,
    "min_pH_when_testing": -1.0,
    "max_pH_when_testing": -1.0,
    "test_medium_electrolyte": [
        {
            "substance_name": "nitrogen",
            "substance_type": "small molecule",
            "substance_descriptors": {
                "CID": 947,
                "MolecularFormula": "N2",
                "MolecularWeight": "28.014",
                "CanonicalSMILES": "N#N",
                "IsomericSMILES": "N#N",
                "InChI": "InChI=1S/N2/c1-2",
                "InChIKey": "IJGRMHOSHXDMSA-UHFFFAOYSA-N",
                "IUPACName": "molecular nitrogen",
                "XLogP": 0.1,
                "ExactMass": "28.006148008",
                "MonoisotopicMass": "28.006148008",
                "TPSA": 47.6,
                "Complexity": 8,
                "Charge": 0,
                "HBondDonorCount": 0,
                "HBondAcceptorCount": 2,
                "RotatableBondCount": 0,
                "HeavyAtomCount": 2,
                "IsotopeAtomCount": 0,
                "AtomStereoCount": 0,
                "DefinedAtomStereoCount": 0,
                "UndefinedAtomStereoCount": 0,
                "BondStereoCount": 0,
                "DefinedBondStereoCount": 0,
                "UndefinedBondStereoCount": 0,
                "CovalentUnitCount": 1,
                "Volume3D": 23.1,
                "XStericQuadrupole3D": 0.82,
                "YStericQuadrupole3D": 0.51,
                "ZStericQuadrupole3D": 0.51,
                "FeatureAcceptorCount3D": 0,
                "FeatureDonorCount3D": 0,
                "FeatureAnionCount3D": 0,
                "FeatureCationCount3D": 0,
                "FeatureRingCount3D": 0,
                "FeatureHydrophobeCount3D": 0,
                "ConformerModelRMSD3D": 0.4,
                "EffectiveRotorCount3D": 0,
                "ConformerCount3D": 1,
                "Morgan_128": [
                    0,
                    0,
                    0,
                    0,
                    0,
                    0,
                    0,
                    0,
                    0,
                    0,
                    0,
                    0,
                    0,
                    0,
                    0,
                    0,
                    0,
                    0,
                    0,
                    0,
                    0,
                    0,
                    0,
                    0,
                    0,
                    0,
                    0,
                    0,
                    0,
                    0,
                    0,
                    0,
                    0,
                    0,
                    0,
                    0,
                    0,
                    0,
                    0,
                    0,
                    0,
                    0,
                    0,
                    0,
                    0,
                    0,
                    0,
                    0,
                    0,
                    0,
                    0,
                    0,
                    0,
                    0,
                    0,
                    0,
                    0,
                    0,
                    0,
                    0,
                    0,
                    0,
                    0,
                    0,
                    0,
                    0,
                    0,
                    0,
                    0,
                    0,
                    0,
                    0,
                    0,
                    0,
                    0,
                    0,
                    1,
                    0,
                    0,
                    0,
                    0,
                    0,
                    0,
                    0,
                    0,
                    0,
                    0,
                    0,
                    0,
                    0,
                    0,
                    0,
                    0,
                    0,
                    0,
                    0,
                    0,
                    0,
                    0,
                    0,
                    0,
                    0,
                    0,
                    0,
                    1,
                    0,
                    0,
                    0,
                    0,
                    0,
                    0,
                    0,
                    0,
                    0,
                    0,
                    0,
                    0,
                    0,
                    0,
                    0,
                    0,
                    0,
                    0,
                    0,
                    0,
                    0,
                    0,
                    0
                ]
            }
        }
    ],
    "LDL_ranking": 1.0,
    "UDL_ranking": 1.0,
    "LDL_category": "Very High Detection (Low Sensitivity)",
    "UDL_category": "High UDL Range"
}