{
    "DOI": "10.1007/s11664-017-5776-2",
    "sensor_type": "gas",
    "detect_target": [
        {
            "substance_name": "ammonia",
            "substance_type": "small molecule",
            "substance_descriptors": {
                "CID": 222,
                "MolecularFormula": "H3N",
                "MolecularWeight": "17.031",
                "CanonicalSMILES": "N",
                "IsomericSMILES": "N",
                "InChI": "InChI=1S/H3N/h1H3",
                "InChIKey": "QGZKDVFQNNGYKY-UHFFFAOYSA-N",
                "IUPACName": "azane",
                "XLogP": -0.7,
                "ExactMass": "17.026549100",
                "MonoisotopicMass": "17.026549100",
                "TPSA": 1,
                "Complexity": 0,
                "Charge": 0,
                "HBondDonorCount": 1,
                "HBondAcceptorCount": 1,
                "RotatableBondCount": 0,
                "HeavyAtomCount": 1,
                "IsotopeAtomCount": 0,
                "AtomStereoCount": 0,
                "DefinedAtomStereoCount": 0,
                "UndefinedAtomStereoCount": 0,
                "BondStereoCount": 0,
                "DefinedBondStereoCount": 0,
                "UndefinedBondStereoCount": 0,
                "CovalentUnitCount": 1,
                "Volume3D": 15.6,
                "XStericQuadrupole3D": 0.51,
                "YStericQuadrupole3D": 0.51,
                "ZStericQuadrupole3D": 0.51,
                "FeatureAcceptorCount3D": 0,
                "FeatureDonorCount3D": 0,
                "FeatureAnionCount3D": 0,
                "FeatureCationCount3D": 1,
                "FeatureRingCount3D": 0,
                "FeatureHydrophobeCount3D": 0,
                "ConformerModelRMSD3D": 0.4,
                "EffectiveRotorCount3D": 0,
                "ConformerCount3D": 1,
                "Morgan_128": [
                    0,
                    0,
                    0,
                    0,
                    0,
                    0,
                    0,
                    0,
                    0,
                    0,
                    0,
                    0,
                    0,
                    0,
                    0,
                    0,
                    0,
                    0,
                    0,
                    0,
                    0,
                    0,
                    0,
                    0,
                    0,
                    0,
                    0,
                    0,
                    0,
                    0,
                    0,
                    0,
                    0,
                    0,
                    1,
                    0,
                    0,
                    0,
                    0,
                    0,
                    0,
                    0,
                    0,
                    0,
                    0,
                    0,
                    0,
                    0,
                    0,
                    0,
                    0,
                    0,
                    0,
                    0,
                    0,
                    0,
                    0,
                    0,
                    0,
                    0,
                    0,
                    0,
                    0,
                    0,
                    0,
                    0,
                    0,
                    0,
                    0,
                    0,
                    0,
                    0,
                    0,
                    0,
                    0,
                    0,
                    0,
                    0,
                    0,
                    0,
                    0,
                    0,
                    0,
                    0,
                    0,
                    0,
                    0,
                    0,
                    0,
                    0,
                    0,
                    0,
                    0,
                    0,
                    0,
                    0,
                    0,
                    0,
                    0,
                    0,
                    0,
                    0,
                    0,
                    0,
                    0,
                    0,
                    0,
                    0,
                    0,
                    0,
                    0,
                    0,
                    0,
                    0,
                    0,
                    0,
                    0,
                    0,
                    0,
                    0,
                    0,
                    0,
                    0,
                    0,
                    0,
                    0,
                    0,
                    0
                ]
            }
        }
    ],
    "lower_detection_limit_log_ppm": 1.698970004,
    "upper_detection_limit_log_ppm": null,
    "probe_material": [
        {
            "substance_name": "polyaniline",
            "substance_type": "polymer",
            "substance_descriptors": {
                "mol_weight": 366.4680000000001,
                "exact_mol_weight": 366.18444670400004,
                "num_h_donors": 4,
                "num_h_acceptors": 4,
                "logP": 6.499600000000004,
                "tpsa": 62.11,
                "num_rotatable_bonds": 6,
                "fraction_csp3": 0.0,
                "labute_asa": 164.59216298552587,
                "peoe_vsa": [
                    21.684033289181176,
                    0.0,
                    0.0,
                    0.0,
                    0.0,
                    54.59730361615449,
                    48.53093654769288,
                    5.687386274683562,
                    34.124317648101375,
                    0.0,
                    0.0,
                    0.0,
                    0.0,
                    0.0
                ],
                "peoe_vsa_summary": {
                    "vsa_sum": 164.6239773758135,
                    "vsa_mean": 11.758855526843819,
                    "vsa_std": 19.025059630855395
                },
                "smr_vsa": [
                    0.0,
                    0.0,
                    0.0,
                    0.0,
                    0.0,
                    21.684033289181176,
                    103.12824016384741,
                    0.0,
                    0.0,
                    39.811703922784936
                ],
                "smr_vsa_summary": {
                    "vsa_sum": 164.62397737581352,
                    "vsa_mean": 16.46239773758135,
                    "vsa_std": 31.59192554357958
                },
                "slogp_vsa": [
                    21.684033289181176,
                    0.0,
                    0.0,
                    0.0,
                    0.0,
                    103.12824016384741,
                    0.0,
                    0.0,
                    0.0,
                    39.811703922784936,
                    0.0,
                    0.0
                ],
                "slogp_vsa_summary": {
                    "vsa_sum": 164.62397737581352,
                    "vsa_mean": 13.718664781317793,
                    "vsa_std": 29.484716136257166
                },
                "kappa1": 17.491649710142717,
                "kappa2": 8.183790282883509,
                "kappa3": 4.073157222477947,
                "chi0": 15.39230484541327,
                "chi1": 9.18140954468665,
                "chi0n": 15.39230484541327,
                "chi1n": 9.18140954468665,
                "chi2n": 6.419443416399236,
                "chi0v": 15.39230484541327,
                "chi1v": 9.18140954468665,
                "chi2v": 6.419443416399236,
                "num_rings": 4,
                "num_aromatic_rings": 4,
                "num_aliphatic_rings": 0,
                "num_saturated_rings": 0,
                "num_heteroatoms": 4,
                "num_spiro_atoms": 0,
                "num_bridgehead_atoms": 0,
                "phi": 0.29417079614393615,
                "morgan_fp_128": [
                    1,
                    0,
                    0,
                    0,
                    0,
                    1,
                    0,
                    0,
                    0,
                    0,
                    0,
                    0,
                    0,
                    0,
                    1,
                    0,
                    0,
                    0,
                    0,
                    1,
                    0,
                    0,
                    0,
                    0,
                    0,
                    0,
                    0,
                    0,
                    0,
                    0,
                    0,
                    0,
                    1,
                    0,
                    0,
                    0,
                    0,
                    1,
                    0,
                    0,
                    0,
                    0,
                    0,
                    0,
                    0,
                    0,
                    0,
                    1,
                    0,
                    1,
                    0,
                    1,
                    0,
                    0,
                    0,
                    0,
                    0,
                    0,
                    0,
                    0,
                    0,
                    0,
                    0,
                    1,
                    1,
                    0,
                    0,
                    0,
                    0,
                    0,
                    0,
                    0,
                    1,
                    0,
                    0,
                    0,
                    0,
                    0,
                    0,
                    0,
                    0,
                    1,
                    0,
                    0,
                    0,
                    0,
                    1,
                    0,
                    0,
                    0,
                    0,
                    0,
                    0,
                    0,
                    0,
                    0,
                    0,
                    0,
                    0,
                    1,
                    1,
                    0,
                    0,
                    1,
                    0,
                    0,
                    0,
                    1,
                    0,
                    0,
                    1,
                    0,
                    0,
                    0,
                    0,
                    0,
                    1,
                    0,
                    0,
                    0,
                    0,
                    0,
                    0,
                    0,
                    0,
                    0,
                    0,
                    0
                ],
                "maccs_fp": [
                    0,
                    0,
                    0,
                    0,
                    0,
                    0,
                    0,
                    0,
                    0,
                    0,
                    0,
                    0,
                    0,
                    0,
                    0,
                    0,
                    0,
                    0,
                    0,
                    0,
                    0,
                    0,
                    0,
                    0,
                    0,
                    0,
                    0,
                    0,
                    0,
                    0,
                    0,
                    0,
                    0,
                    0,
                    0,
                    0,
                    0,
                    0,
                    0,
                    0,
                    0,
                    0,
                    0,
                    0,
                    0,
                    0,
                    0,
                    0,
                    0,
                    0,
                    0,
                    0,
                    0,
                    0,
                    1,
                    0,
                    0,
                    0,
                    0,
                    0,
                    0,
                    0,
                    0,
                    0,
                    0,
                    0,
                    0,
                    0,
                    0,
                    0,
                    0,
                    0,
                    0,
                    0,
                    0,
                    0,
                    0,
                    0,
                    0,
                    1,
                    0,
                    0,
                    0,
                    0,
                    1,
                    0,
                    0,
                    0,
                    0,
                    0,
                    0,
                    0,
                    0,
                    0,
                    0,
                    0,
                    0,
                    0,
                    0,
                    0,
                    0,
                    0,
                    0,
                    0,
                    0,
                    0,
                    0,
                    0,
                    0,
                    0,
                    0,
                    0,
                    0,
                    0,
                    0,
                    0,
                    0,
                    0,
                    0,
                    0,
                    0,
                    0,
                    0,
                    0,
                    0,
                    1,
                    0,
                    0,
                    0,
                    0,
                    0,
                    1,
                    0,
                    1,
                    0,
                    1,
                    0,
                    0,
                    0,
                    0,
                    0,
                    0,
                    1,
                    0,
                    1,
                    1,
                    0,
                    0,
                    0,
                    0,
                    1,
                    1,
                    0,
                    0,
                    0,
                    0,
                    1,
                    0,
                    1,
                    0,
                    0,
                    1,
                    1,
                    1,
                    0,
                    1,
                    0
                ]
            }
        },
        {
            "substance_name": "titanium dioxide",
            "substance_type": "inorganic solid",
            "substance_descriptors": {
                "Number of Elements": 2,
                "Element Types": [
                    "O",
                    "Ti"
                ],
                "Number of Atoms in Unit Cell": 12,
                "Lattice Parameter a (\u00c5)": "4.59",
                "Lattice Parameter b (\u00c5)": "4.59",
                "Lattice Parameter c (\u00c5)": "2.96",
                "Lattice Angle alpha (degrees)": "90",
                "Lattice Angle beta (degrees)": "90",
                "Lattice Angle gamma (degrees)": "90",
                "Unit Cell Volume (\u00c5\u00b3)": 125.22506013556851,
                "Density (g/cm\u00b3)": 4.236221754389662,
                "Space Group Number": 136,
                "Band Gap (eV)": 1.7809999999999997,
                "Is Metallic (1/0)": 0,
                "Formation Energy per Atom (eV)": -3.3124930805555564,
                "Energy Above Hull (eV/atom)": 0.009526375000000087,
                "Energy per Atom (eV/atom)": -11.598845768333334,
                "Total Magnetization (\u03bcB)": 0.0,
                "Magnetic Ordering": "NM",
                "Bulk Modulus (GPa)": 208.538,
                "Shear Modulus (GPa)": 107.377,
                "Fermi Energy (eV)": 3.2964511,
                "Total Energy (eV)": -7.07832,
                "Crystal System": "tetragonal",
                "Magpie Descriptors": {
                    "MagpieData minimum Number": 8.0,
                    "MagpieData maximum Number": 22.0,
                    "MagpieData range Number": 14.0,
                    "MagpieData mean Number": 17.333333333333332,
                    "MagpieData avg_dev Number": 6.222222222222222,
                    "MagpieData mode Number": 22.0,
                    "MagpieData std_dev Number": 9.899494936611665,
                    "MagpieData minimum MendeleevNumber": 43.0,
                    "MagpieData maximum MendeleevNumber": 87.0,
                    "MagpieData range MendeleevNumber": 44.0,
                    "MagpieData mean MendeleevNumber": 57.666666666666664,
                    "MagpieData avg_dev MendeleevNumber": 19.555555555555554,
                    "MagpieData mode MendeleevNumber": 43.0,
                    "MagpieData std_dev MendeleevNumber": 31.11269837220809,
                    "MagpieData minimum AtomicWeight": 15.9994,
                    "MagpieData maximum AtomicWeight": 47.867,
                    "MagpieData range AtomicWeight": 31.867599999999996,
                    "MagpieData mean AtomicWeight": 37.24446666666667,
                    "MagpieData avg_dev AtomicWeight": 14.163377777777775,
                    "MagpieData mode AtomicWeight": 47.867,
                    "MagpieData std_dev AtomicWeight": 22.533796060140418,
                    "MagpieData minimum MeltingT": 54.8,
                    "MagpieData maximum MeltingT": 1941.0,
                    "MagpieData range MeltingT": 1886.2,
                    "MagpieData mean MeltingT": 1312.2666666666667,
                    "MagpieData avg_dev MeltingT": 838.3111111111111,
                    "MagpieData mode MeltingT": 1941.0,
                    "MagpieData std_dev MeltingT": 1333.7448106740658,
                    "MagpieData minimum Column": 4.0,
                    "MagpieData maximum Column": 16.0,
                    "MagpieData range Column": 12.0,
                    "MagpieData mean Column": 8.0,
                    "MagpieData avg_dev Column": 5.333333333333333,
                    "MagpieData mode Column": 4.0,
                    "MagpieData std_dev Column": 8.48528137423857,
                    "MagpieData minimum Row": 2.0,
                    "MagpieData maximum Row": 4.0,
                    "MagpieData range Row": 2.0,
                    "MagpieData mean Row": 3.333333333333333,
                    "MagpieData avg_dev Row": 0.888888888888889,
                    "MagpieData mode Row": 4.0,
                    "MagpieData std_dev Row": 1.4142135623730951,
                    "MagpieData minimum CovalentRadius": 66.0,
                    "MagpieData maximum CovalentRadius": 160.0,
                    "MagpieData range CovalentRadius": 94.0,
                    "MagpieData mean CovalentRadius": 128.66666666666666,
                    "MagpieData avg_dev CovalentRadius": 41.77777777777778,
                    "MagpieData mode CovalentRadius": 160.0,
                    "MagpieData std_dev CovalentRadius": 66.46803743153546,
                    "MagpieData minimum Electronegativity": 1.54,
                    "MagpieData maximum Electronegativity": 3.44,
                    "MagpieData range Electronegativity": 1.9,
                    "MagpieData mean Electronegativity": 2.173333333333333,
                    "MagpieData avg_dev Electronegativity": 0.8444444444444442,
                    "MagpieData mode Electronegativity": 1.54,
                    "MagpieData std_dev Electronegativity": 1.34350288425444,
                    "MagpieData minimum NsValence": 2.0,
                    "MagpieData maximum NsValence": 2.0,
                    "MagpieData range NsValence": 0.0,
                    "MagpieData mean NsValence": 2.0,
                    "MagpieData avg_dev NsValence": 0.0,
                    "MagpieData mode NsValence": 2.0,
                    "MagpieData std_dev NsValence": 0.0,
                    "MagpieData minimum NpValence": 0.0,
                    "MagpieData maximum NpValence": 4.0,
                    "MagpieData range NpValence": 4.0,
                    "MagpieData mean NpValence": 1.3333333333333333,
                    "MagpieData avg_dev NpValence": 1.7777777777777777,
                    "MagpieData mode NpValence": 0.0,
                    "MagpieData std_dev NpValence": 2.8284271247461903,
                    "MagpieData minimum NdValence": 0.0,
                    "MagpieData maximum NdValence": 2.0,
                    "MagpieData range NdValence": 2.0,
                    "MagpieData mean NdValence": 1.3333333333333333,
                    "MagpieData avg_dev NdValence": 0.8888888888888888,
                    "MagpieData mode NdValence": 2.0,
                    "MagpieData std_dev NdValence": 1.4142135623730951,
                    "MagpieData minimum NfValence": 0.0,
                    "MagpieData maximum NfValence": 0.0,
                    "MagpieData range NfValence": 0.0,
                    "MagpieData mean NfValence": 0.0,
                    "MagpieData avg_dev NfValence": 0.0,
                    "MagpieData mode NfValence": 0.0,
                    "MagpieData std_dev NfValence": 0.0,
                    "MagpieData minimum NValence": 4.0,
                    "MagpieData maximum NValence": 6.0,
                    "MagpieData range NValence": 2.0,
                    "MagpieData mean NValence": 4.666666666666666,
                    "MagpieData avg_dev NValence": 0.8888888888888886,
                    "MagpieData mode NValence": 4.0,
                    "MagpieData std_dev NValence": 1.4142135623730951,
                    "MagpieData minimum NsUnfilled": 0.0,
                    "MagpieData maximum NsUnfilled": 0.0,
                    "MagpieData range NsUnfilled": 0.0,
                    "MagpieData mean NsUnfilled": 0.0,
                    "MagpieData avg_dev NsUnfilled": 0.0,
                    "MagpieData mode NsUnfilled": 0.0,
                    "MagpieData std_dev NsUnfilled": 0.0,
                    "MagpieData minimum NpUnfilled": 0.0,
                    "MagpieData maximum NpUnfilled": 2.0,
                    "MagpieData range NpUnfilled": 2.0,
                    "MagpieData mean NpUnfilled": 0.6666666666666666,
                    "MagpieData avg_dev NpUnfilled": 0.8888888888888888,
                    "MagpieData mode NpUnfilled": 0.0,
                    "MagpieData std_dev NpUnfilled": 1.4142135623730951,
                    "MagpieData minimum NdUnfilled": 0.0,
                    "MagpieData maximum NdUnfilled": 8.0,
                    "MagpieData range NdUnfilled": 8.0,
                    "MagpieData mean NdUnfilled": 5.333333333333333,
                    "MagpieData avg_dev NdUnfilled": 3.5555555555555554,
                    "MagpieData mode NdUnfilled": 8.0,
                    "MagpieData std_dev NdUnfilled": 5.656854249492381,
                    "MagpieData minimum NfUnfilled": 0.0,
                    "MagpieData maximum NfUnfilled": 0.0,
                    "MagpieData range NfUnfilled": 0.0,
                    "MagpieData mean NfUnfilled": 0.0,
                    "MagpieData avg_dev NfUnfilled": 0.0,
                    "MagpieData mode NfUnfilled": 0.0,
                    "MagpieData std_dev NfUnfilled": 0.0,
                    "MagpieData minimum NUnfilled": 2.0,
                    "MagpieData maximum NUnfilled": 8.0,
                    "MagpieData range NUnfilled": 6.0,
                    "MagpieData mean NUnfilled": 6.0,
                    "MagpieData avg_dev NUnfilled": 2.6666666666666665,
                    "MagpieData mode NUnfilled": 8.0,
                    "MagpieData std_dev NUnfilled": 4.242640687119285,
                    "MagpieData minimum GSvolume_pa": 9.105,
                    "MagpieData maximum GSvolume_pa": 16.69,
                    "MagpieData range GSvolume_pa": 7.585000000000001,
                    "MagpieData mean GSvolume_pa": 14.161666666666667,
                    "MagpieData avg_dev GSvolume_pa": 3.3711111111111114,
                    "MagpieData mode GSvolume_pa": 16.69,
                    "MagpieData std_dev GSvolume_pa": 5.363404935299963,
                    "MagpieData minimum GSbandgap": 0.0,
                    "MagpieData maximum GSbandgap": 0.0,
                    "MagpieData range GSbandgap": 0.0,
                    "MagpieData mean GSbandgap": 0.0,
                    "MagpieData avg_dev GSbandgap": 0.0,
                    "MagpieData mode GSbandgap": 0.0,
                    "MagpieData std_dev GSbandgap": 0.0,
                    "MagpieData minimum GSmagmom": 0.0,
                    "MagpieData maximum GSmagmom": 2.25333333333e-05,
                    "MagpieData range GSmagmom": 2.25333333333e-05,
                    "MagpieData mean GSmagmom": 1.50222222222e-05,
                    "MagpieData avg_dev GSmagmom": 1.0014814814799999e-05,
                    "MagpieData mode GSmagmom": 2.25333333333e-05,
                    "MagpieData std_dev GSmagmom": 1.59334728027133e-05,
                    "MagpieData minimum SpaceGroupNumber": 12.0,
                    "MagpieData maximum SpaceGroupNumber": 194.0,
                    "MagpieData range SpaceGroupNumber": 182.0,
                    "MagpieData mean SpaceGroupNumber": 133.33333333333331,
                    "MagpieData avg_dev SpaceGroupNumber": 80.88888888888889,
                    "MagpieData mode SpaceGroupNumber": 194.0,
                    "MagpieData std_dev SpaceGroupNumber": 128.69343417595164
                }
            }
        }
    ],
    "test_operating_temperature_celsius": 23.75,
    "min_pH_when_testing": -1.0,
    "max_pH_when_testing": -1.0,
    "test_medium_electrolyte": [
        {
            "substance_name": "oxygen",
            "substance_type": "small molecule",
            "substance_descriptors": {
                "CID": 977,
                "MolecularFormula": "O2",
                "MolecularWeight": "31.999",
                "CanonicalSMILES": "O=O",
                "IsomericSMILES": "O=O",
                "InChI": "InChI=1S/O2/c1-2",
                "InChIKey": "MYMOFIZGZYHOMD-UHFFFAOYSA-N",
                "IUPACName": "molecular oxygen",
                "XLogP": -1.1,
                "ExactMass": "31.989829239",
                "MonoisotopicMass": "31.989829239",
                "TPSA": 34.1,
                "Complexity": 0,
                "Charge": 0,
                "HBondDonorCount": 0,
                "HBondAcceptorCount": 2,
                "RotatableBondCount": 0,
                "HeavyAtomCount": 2,
                "IsotopeAtomCount": 0,
                "AtomStereoCount": 0,
                "DefinedAtomStereoCount": 0,
                "UndefinedAtomStereoCount": 0,
                "BondStereoCount": 0,
                "DefinedBondStereoCount": 0,
                "UndefinedBondStereoCount": 0,
                "CovalentUnitCount": 1,
                "Volume3D": 22.9,
                "XStericQuadrupole3D": 0.87,
                "YStericQuadrupole3D": 0.49,
                "ZStericQuadrupole3D": 0.49,
                "FeatureAcceptorCount3D": 0,
                "FeatureDonorCount3D": 0,
                "FeatureAnionCount3D": 0,
                "FeatureCationCount3D": 0,
                "FeatureRingCount3D": 0,
                "FeatureHydrophobeCount3D": 0,
                "ConformerModelRMSD3D": 0.4,
                "EffectiveRotorCount3D": 0,
                "ConformerCount3D": 1,
                "Morgan_128": [
                    0,
                    0,
                    0,
                    0,
                    0,
                    0,
                    0,
                    0,
                    0,
                    0,
                    1,
                    0,
                    0,
                    0,
                    0,
                    0,
                    1,
                    0,
                    0,
                    0,
                    0,
                    0,
                    0,
                    0,
                    0,
                    0,
                    0,
                    0,
                    0,
                    0,
                    0,
                    0,
                    0,
                    0,
                    0,
                    0,
                    0,
                    0,
                    0,
                    0,
                    0,
                    0,
                    0,
                    0,
                    0,
                    0,
                    0,
                    0,
                    0,
                    0,
                    0,
                    0,
                    0,
                    0,
                    0,
                    0,
                    0,
                    0,
                    0,
                    0,
                    0,
                    0,
                    0,
                    0,
                    0,
                    0,
                    0,
                    0,
                    0,
                    0,
                    0,
                    0,
                    0,
                    0,
                    0,
                    0,
                    0,
                    0,
                    0,
                    0,
                    0,
                    0,
                    0,
                    0,
                    0,
                    0,
                    0,
                    0,
                    0,
                    0,
                    0,
                    0,
                    0,
                    0,
                    0,
                    0,
                    0,
                    0,
                    0,
                    0,
                    0,
                    0,
                    0,
                    0,
                    0,
                    0,
                    0,
                    0,
                    0,
                    0,
                    0,
                    0,
                    0,
                    0,
                    0,
                    0,
                    0,
                    0,
                    0,
                    0,
                    0,
                    0,
                    0,
                    0,
                    0,
                    0,
                    0,
                    0
                ]
            }
        },
        {
            "substance_name": "argon",
            "substance_type": "small molecule",
            "substance_descriptors": {
                "CID": 23968,
                "MolecularFormula": "Ar",
                "MolecularWeight": "39.9",
                "CanonicalSMILES": "[Ar]",
                "IsomericSMILES": "[Ar]",
                "InChI": "InChI=1S/Ar",
                "InChIKey": "XKRFYHLGVUSROY-UHFFFAOYSA-N",
                "IUPACName": "argon",
                "ExactMass": "39.96238312",
                "MonoisotopicMass": "39.96238312",
                "TPSA": 0,
                "Complexity": 0,
                "Charge": 0,
                "HBondDonorCount": 0,
                "HBondAcceptorCount": 0,
                "RotatableBondCount": 0,
                "HeavyAtomCount": 1,
                "IsotopeAtomCount": 0,
                "AtomStereoCount": 0,
                "DefinedAtomStereoCount": 0,
                "UndefinedAtomStereoCount": 0,
                "BondStereoCount": 0,
                "DefinedBondStereoCount": 0,
                "UndefinedBondStereoCount": 0,
                "CovalentUnitCount": 1,
                "ConformerCount3D": 0,
                "Morgan_128": [
                    0,
                    0,
                    0,
                    0,
                    0,
                    0,
                    0,
                    0,
                    0,
                    0,
                    0,
                    0,
                    0,
                    0,
                    0,
                    0,
                    0,
                    0,
                    0,
                    0,
                    0,
                    0,
                    0,
                    0,
                    0,
                    0,
                    0,
                    0,
                    0,
                    0,
                    0,
                    0,
                    0,
                    0,
                    0,
                    0,
                    0,
                    0,
                    0,
                    0,
                    0,
                    1,
                    0,
                    0,
                    0,
                    0,
                    0,
                    0,
                    0,
                    0,
                    0,
                    0,
                    0,
                    0,
                    0,
                    0,
                    0,
                    0,
                    0,
                    0,
                    0,
                    0,
                    0,
                    0,
                    0,
                    0,
                    0,
                    0,
                    0,
                    0,
                    0,
                    0,
                    0,
                    0,
                    0,
                    0,
                    0,
                    0,
                    0,
                    0,
                    0,
                    0,
                    0,
                    0,
                    0,
                    0,
                    0,
                    0,
                    0,
                    0,
                    0,
                    0,
                    0,
                    0,
                    0,
                    0,
                    0,
                    0,
                    0,
                    0,
                    0,
                    0,
                    0,
                    0,
                    0,
                    0,
                    0,
                    0,
                    0,
                    0,
                    0,
                    0,
                    0,
                    0,
                    0,
                    0,
                    0,
                    0,
                    0,
                    0,
                    0,
                    0,
                    0,
                    0,
                    0,
                    0,
                    0,
                    0
                ]
            }
        }
    ],
    "LDL_ranking": 1.0,
    "UDL_ranking": null,
    "LDL_category": "Very High Detection (Low Sensitivity)",
    "UDL_category": null
}