{
    "DOI": "10.1088/1674-1056/27/8/087308",
    "sensor_type": "liquid",
    "detect_target": [
        {
            "substance_name": "ag+",
            "substance_type": "small molecule",
            "substance_descriptors": {
                "CID": 104755,
                "MolecularFormula": "Ag+",
                "MolecularWeight": "107.868",
                "CanonicalSMILES": "[Ag+]",
                "IsomericSMILES": "[Ag+]",
                "InChI": "InChI=1S/Ag/q+1",
                "InChIKey": "FOIXSVOLVBLSDH-UHFFFAOYSA-N",
                "IUPACName": "silver(1+)",
                "ExactMass": "106.90509",
                "MonoisotopicMass": "106.90509",
                "TPSA": 0,
                "Complexity": 0,
                "Charge": 1,
                "HBondDonorCount": 0,
                "HBondAcceptorCount": 0,
                "RotatableBondCount": 0,
                "HeavyAtomCount": 1,
                "IsotopeAtomCount": 0,
                "AtomStereoCount": 0,
                "DefinedAtomStereoCount": 0,
                "UndefinedAtomStereoCount": 0,
                "BondStereoCount": 0,
                "DefinedBondStereoCount": 0,
                "UndefinedBondStereoCount": 0,
                "CovalentUnitCount": 1,
                "ConformerCount3D": 0,
                "Morgan_128": [
                    0,
                    0,
                    0,
                    0,
                    0,
                    0,
                    0,
                    0,
                    0,
                    0,
                    0,
                    0,
                    0,
                    0,
                    0,
                    0,
                    0,
                    0,
                    0,
                    0,
                    0,
                    0,
                    0,
                    0,
                    0,
                    0,
                    0,
                    0,
                    0,
                    0,
                    0,
                    0,
                    0,
                    0,
                    0,
                    0,
                    0,
                    0,
                    0,
                    0,
                    0,
                    0,
                    0,
                    0,
                    0,
                    0,
                    0,
                    0,
                    0,
                    0,
                    0,
                    0,
                    0,
                    0,
                    0,
                    0,
                    0,
                    0,
                    0,
                    0,
                    0,
                    0,
                    0,
                    0,
                    0,
                    0,
                    0,
                    0,
                    0,
                    0,
                    0,
                    0,
                    0,
                    0,
                    0,
                    0,
                    0,
                    0,
                    0,
                    0,
                    0,
                    0,
                    0,
                    0,
                    0,
                    0,
                    0,
                    0,
                    0,
                    0,
                    0,
                    0,
                    0,
                    0,
                    1,
                    0,
                    0,
                    0,
                    0,
                    0,
                    0,
                    0,
                    0,
                    0,
                    0,
                    0,
                    0,
                    0,
                    0,
                    0,
                    0,
                    0,
                    0,
                    0,
                    0,
                    0,
                    0,
                    0,
                    0,
                    0,
                    0,
                    0,
                    0,
                    0,
                    0,
                    0,
                    0,
                    0
                ]
            }
        }
    ],
    "lower_detection_limit_log_ppm": -5.0,
    "upper_detection_limit_log_ppm": 0.0,
    "probe_material": [
        {
            "substance_name": "phosphorus",
            "substance_type": "inorganic solid",
            "substance_descriptors": {
                "Number of Elements": 1,
                "Element Types": [
                    "P"
                ],
                "Number of Atoms in Unit Cell": 4,
                "Lattice Parameter a (\u00c5)": "3.3133",
                "Lattice Parameter b (\u00c5)": "10.473",
                "Lattice Parameter c (\u00c5)": "4.374",
                "Lattice Angle alpha (degrees)": "90",
                "Lattice Angle beta (degrees)": "90",
                "Lattice Angle gamma (degrees)": "90",
                "Unit Cell Volume (\u00c5\u00b3)": 81.83068009510166,
                "Density (g/cm\u00b3)": 2.5141251071503343,
                "Space Group Number": 64,
                "Band Gap (eV)": 0.010399999999999743,
                "Is Metallic (1/0)": 0,
                "Formation Energy per Atom (eV)": 0.020214559523809683,
                "Energy Above Hull (eV/atom)": 0.020214559523809683,
                "Energy per Atom (eV/atom)": -8.9818617525,
                "Total Magnetization (\u03bcB)": 0.0,
                "Magnetic Ordering": "NM",
                "Bulk Modulus (GPa)": 20.688,
                "Shear Modulus (GPa)": 12.609,
                "Fermi Energy (eV)": 6.03121822,
                "Total Energy (eV)": -3.96121,
                "Crystal System": "orthorhombic",
                "Magpie Descriptors": {
                    "MagpieData minimum Number": 15.0,
                    "MagpieData maximum Number": 15.0,
                    "MagpieData range Number": 0.0,
                    "MagpieData mean Number": 15.0,
                    "MagpieData avg_dev Number": 0.0,
                    "MagpieData mode Number": 15.0,
                    "MagpieData std_dev Number": 0,
                    "MagpieData minimum MendeleevNumber": 83.0,
                    "MagpieData maximum MendeleevNumber": 83.0,
                    "MagpieData range MendeleevNumber": 0.0,
                    "MagpieData mean MendeleevNumber": 83.0,
                    "MagpieData avg_dev MendeleevNumber": 0.0,
                    "MagpieData mode MendeleevNumber": 83.0,
                    "MagpieData std_dev MendeleevNumber": 0,
                    "MagpieData minimum AtomicWeight": 30.973762,
                    "MagpieData maximum AtomicWeight": 30.973762,
                    "MagpieData range AtomicWeight": 0.0,
                    "MagpieData mean AtomicWeight": 30.973762,
                    "MagpieData avg_dev AtomicWeight": 0.0,
                    "MagpieData mode AtomicWeight": 30.973762,
                    "MagpieData std_dev AtomicWeight": 0,
                    "MagpieData minimum MeltingT": 317.3,
                    "MagpieData maximum MeltingT": 317.3,
                    "MagpieData range MeltingT": 0.0,
                    "MagpieData mean MeltingT": 317.3,
                    "MagpieData avg_dev MeltingT": 0.0,
                    "MagpieData mode MeltingT": 317.3,
                    "MagpieData std_dev MeltingT": 0,
                    "MagpieData minimum Column": 15.0,
                    "MagpieData maximum Column": 15.0,
                    "MagpieData range Column": 0.0,
                    "MagpieData mean Column": 15.0,
                    "MagpieData avg_dev Column": 0.0,
                    "MagpieData mode Column": 15.0,
                    "MagpieData std_dev Column": 0,
                    "MagpieData minimum Row": 3.0,
                    "MagpieData maximum Row": 3.0,
                    "MagpieData range Row": 0.0,
                    "MagpieData mean Row": 3.0,
                    "MagpieData avg_dev Row": 0.0,
                    "MagpieData mode Row": 3.0,
                    "MagpieData std_dev Row": 0,
                    "MagpieData minimum CovalentRadius": 107.0,
                    "MagpieData maximum CovalentRadius": 107.0,
                    "MagpieData range CovalentRadius": 0.0,
                    "MagpieData mean CovalentRadius": 107.0,
                    "MagpieData avg_dev CovalentRadius": 0.0,
                    "MagpieData mode CovalentRadius": 107.0,
                    "MagpieData std_dev CovalentRadius": 0,
                    "MagpieData minimum Electronegativity": 2.19,
                    "MagpieData maximum Electronegativity": 2.19,
                    "MagpieData range Electronegativity": 0.0,
                    "MagpieData mean Electronegativity": 2.19,
                    "MagpieData avg_dev Electronegativity": 0.0,
                    "MagpieData mode Electronegativity": 2.19,
                    "MagpieData std_dev Electronegativity": 0,
                    "MagpieData minimum NsValence": 2.0,
                    "MagpieData maximum NsValence": 2.0,
                    "MagpieData range NsValence": 0.0,
                    "MagpieData mean NsValence": 2.0,
                    "MagpieData avg_dev NsValence": 0.0,
                    "MagpieData mode NsValence": 2.0,
                    "MagpieData std_dev NsValence": 0,
                    "MagpieData minimum NpValence": 3.0,
                    "MagpieData maximum NpValence": 3.0,
                    "MagpieData range NpValence": 0.0,
                    "MagpieData mean NpValence": 3.0,
                    "MagpieData avg_dev NpValence": 0.0,
                    "MagpieData mode NpValence": 3.0,
                    "MagpieData std_dev NpValence": 0,
                    "MagpieData minimum NdValence": 0.0,
                    "MagpieData maximum NdValence": 0.0,
                    "MagpieData range NdValence": 0.0,
                    "MagpieData mean NdValence": 0.0,
                    "MagpieData avg_dev NdValence": 0.0,
                    "MagpieData mode NdValence": 0.0,
                    "MagpieData std_dev NdValence": 0,
                    "MagpieData minimum NfValence": 0.0,
                    "MagpieData maximum NfValence": 0.0,
                    "MagpieData range NfValence": 0.0,
                    "MagpieData mean NfValence": 0.0,
                    "MagpieData avg_dev NfValence": 0.0,
                    "MagpieData mode NfValence": 0.0,
                    "MagpieData std_dev NfValence": 0,
                    "MagpieData minimum NValence": 5.0,
                    "MagpieData maximum NValence": 5.0,
                    "MagpieData range NValence": 0.0,
                    "MagpieData mean NValence": 5.0,
                    "MagpieData avg_dev NValence": 0.0,
                    "MagpieData mode NValence": 5.0,
                    "MagpieData std_dev NValence": 0,
                    "MagpieData minimum NsUnfilled": 0.0,
                    "MagpieData maximum NsUnfilled": 0.0,
                    "MagpieData range NsUnfilled": 0.0,
                    "MagpieData mean NsUnfilled": 0.0,
                    "MagpieData avg_dev NsUnfilled": 0.0,
                    "MagpieData mode NsUnfilled": 0.0,
                    "MagpieData std_dev NsUnfilled": 0,
                    "MagpieData minimum NpUnfilled": 3.0,
                    "MagpieData maximum NpUnfilled": 3.0,
                    "MagpieData range NpUnfilled": 0.0,
                    "MagpieData mean NpUnfilled": 3.0,
                    "MagpieData avg_dev NpUnfilled": 0.0,
                    "MagpieData mode NpUnfilled": 3.0,
                    "MagpieData std_dev NpUnfilled": 0,
                    "MagpieData minimum NdUnfilled": 0.0,
                    "MagpieData maximum NdUnfilled": 0.0,
                    "MagpieData range NdUnfilled": 0.0,
                    "MagpieData mean NdUnfilled": 0.0,
                    "MagpieData avg_dev NdUnfilled": 0.0,
                    "MagpieData mode NdUnfilled": 0.0,
                    "MagpieData std_dev NdUnfilled": 0,
                    "MagpieData minimum NfUnfilled": 0.0,
                    "MagpieData maximum NfUnfilled": 0.0,
                    "MagpieData range NfUnfilled": 0.0,
                    "MagpieData mean NfUnfilled": 0.0,
                    "MagpieData avg_dev NfUnfilled": 0.0,
                    "MagpieData mode NfUnfilled": 0.0,
                    "MagpieData std_dev NfUnfilled": 0,
                    "MagpieData minimum NUnfilled": 3.0,
                    "MagpieData maximum NUnfilled": 3.0,
                    "MagpieData range NUnfilled": 0.0,
                    "MagpieData mean NUnfilled": 3.0,
                    "MagpieData avg_dev NUnfilled": 0.0,
                    "MagpieData mode NUnfilled": 3.0,
                    "MagpieData std_dev NUnfilled": 0,
                    "MagpieData minimum GSvolume_pa": 22.5702380952,
                    "MagpieData maximum GSvolume_pa": 22.5702380952,
                    "MagpieData range GSvolume_pa": 0.0,
                    "MagpieData mean GSvolume_pa": 22.5702380952,
                    "MagpieData avg_dev GSvolume_pa": 0.0,
                    "MagpieData mode GSvolume_pa": 22.5702380952,
                    "MagpieData std_dev GSvolume_pa": 0,
                    "MagpieData minimum GSbandgap": 1.625,
                    "MagpieData maximum GSbandgap": 1.625,
                    "MagpieData range GSbandgap": 0.0,
                    "MagpieData mean GSbandgap": 1.625,
                    "MagpieData avg_dev GSbandgap": 0.0,
                    "MagpieData mode GSbandgap": 1.625,
                    "MagpieData std_dev GSbandgap": 0,
                    "MagpieData minimum GSmagmom": 0.0,
                    "MagpieData maximum GSmagmom": 0.0,
                    "MagpieData range GSmagmom": 0.0,
                    "MagpieData mean GSmagmom": 0.0,
                    "MagpieData avg_dev GSmagmom": 0.0,
                    "MagpieData mode GSmagmom": 0.0,
                    "MagpieData std_dev GSmagmom": 0,
                    "MagpieData minimum SpaceGroupNumber": 2.0,
                    "MagpieData maximum SpaceGroupNumber": 2.0,
                    "MagpieData range SpaceGroupNumber": 0.0,
                    "MagpieData mean SpaceGroupNumber": 2.0,
                    "MagpieData avg_dev SpaceGroupNumber": 0.0,
                    "MagpieData mode SpaceGroupNumber": 2.0,
                    "MagpieData std_dev SpaceGroupNumber": 0
                }
            }
        }
    ],
    "test_operating_temperature_celsius": 22.5,
    "min_pH_when_testing": 6.5,
    "max_pH_when_testing": 6.5,
    "test_medium_electrolyte": [
        {
            "substance_name": "n-methyl pyrrolidone",
            "substance_type": "small molecule",
            "substance_descriptors": {
                "CID": 13387,
                "MolecularFormula": "C5H9NO",
                "MolecularWeight": "99.13",
                "CanonicalSMILES": "CN1CCCC1=O",
                "IsomericSMILES": "CN1CCCC1=O",
                "InChI": "InChI=1S/C5H9NO/c1-6-4-2-3-5(6)7/h2-4H2,1H3",
                "InChIKey": "SECXISVLQFMRJM-UHFFFAOYSA-N",
                "IUPACName": "1-methylpyrrolidin-2-one",
                "XLogP": -0.5,
                "ExactMass": "99.068413911",
                "MonoisotopicMass": "99.068413911",
                "TPSA": 20.3,
                "Complexity": 90,
                "Charge": 0,
                "HBondDonorCount": 0,
                "HBondAcceptorCount": 1,
                "RotatableBondCount": 0,
                "HeavyAtomCount": 7,
                "IsotopeAtomCount": 0,
                "AtomStereoCount": 0,
                "DefinedAtomStereoCount": 0,
                "UndefinedAtomStereoCount": 0,
                "BondStereoCount": 0,
                "DefinedBondStereoCount": 0,
                "UndefinedBondStereoCount": 0,
                "CovalentUnitCount": 1,
                "Volume3D": 82.9,
                "XStericQuadrupole3D": 2.08,
                "YStericQuadrupole3D": 1.71,
                "ZStericQuadrupole3D": 0.61,
                "FeatureAcceptorCount3D": 1,
                "FeatureDonorCount3D": 0,
                "FeatureAnionCount3D": 0,
                "FeatureCationCount3D": 0,
                "FeatureRingCount3D": 1,
                "FeatureHydrophobeCount3D": 0,
                "ConformerModelRMSD3D": 0.4,
                "EffectiveRotorCount3D": 0.8,
                "ConformerCount3D": 1,
                "Morgan_128": [
                    0,
                    0,
                    0,
                    0,
                    1,
                    0,
                    0,
                    0,
                    0,
                    0,
                    1,
                    0,
                    0,
                    0,
                    0,
                    0,
                    0,
                    0,
                    0,
                    0,
                    0,
                    0,
                    0,
                    0,
                    0,
                    0,
                    0,
                    0,
                    0,
                    1,
                    1,
                    0,
                    0,
                    1,
                    0,
                    0,
                    0,
                    0,
                    0,
                    1,
                    0,
                    0,
                    0,
                    0,
                    0,
                    0,
                    0,
                    0,
                    0,
                    0,
                    0,
                    0,
                    0,
                    0,
                    0,
                    0,
                    0,
                    0,
                    1,
                    0,
                    0,
                    0,
                    0,
                    0,
                    0,
                    0,
                    0,
                    0,
                    0,
                    0,
                    0,
                    0,
                    1,
                    0,
                    1,
                    0,
                    0,
                    0,
                    0,
                    0,
                    0,
                    0,
                    0,
                    0,
                    0,
                    0,
                    1,
                    0,
                    0,
                    0,
                    0,
                    0,
                    0,
                    0,
                    0,
                    0,
                    0,
                    0,
                    0,
                    0,
                    1,
                    0,
                    0,
                    0,
                    0,
                    0,
                    0,
                    0,
                    0,
                    0,
                    0,
                    0,
                    0,
                    0,
                    1,
                    0,
                    0,
                    0,
                    0,
                    0,
                    0,
                    1,
                    0,
                    1,
                    0,
                    0,
                    0,
                    0
                ]
            }
        }
    ],
    "LDL_ranking": 1.0,
    "UDL_ranking": 1.0,
    "LDL_category": "Low Detection",
    "UDL_category": "Low UDL Range"
}