{
    "DOI": "10.1021/acsnano.9b08253",
    "sensor_type": "gas",
    "detect_target": [
        {
            "substance_name": "ethanol",
            "substance_type": "small molecule",
            "substance_descriptors": {
                "CID": 702,
                "MolecularFormula": "C2H6O",
                "MolecularWeight": "46.07",
                "CanonicalSMILES": "CCO",
                "IsomericSMILES": "CCO",
                "InChI": "InChI=1S/C2H6O/c1-2-3/h3H,2H2,1H3",
                "InChIKey": "LFQSCWFLJHTTHZ-UHFFFAOYSA-N",
                "IUPACName": "ethanol",
                "XLogP": -0.1,
                "ExactMass": "46.041864811",
                "MonoisotopicMass": "46.041864811",
                "TPSA": 20.2,
                "Complexity": 2,
                "Charge": 0,
                "HBondDonorCount": 1,
                "HBondAcceptorCount": 1,
                "RotatableBondCount": 0,
                "HeavyAtomCount": 3,
                "IsotopeAtomCount": 0,
                "AtomStereoCount": 0,
                "DefinedAtomStereoCount": 0,
                "UndefinedAtomStereoCount": 0,
                "BondStereoCount": 0,
                "DefinedBondStereoCount": 0,
                "UndefinedBondStereoCount": 0,
                "CovalentUnitCount": 1,
                "Volume3D": 41.5,
                "XStericQuadrupole3D": 1.48,
                "YStericQuadrupole3D": 0.75,
                "ZStericQuadrupole3D": 0.58,
                "FeatureAcceptorCount3D": 1,
                "FeatureDonorCount3D": 1,
                "FeatureAnionCount3D": 0,
                "FeatureCationCount3D": 0,
                "FeatureRingCount3D": 0,
                "FeatureHydrophobeCount3D": 0,
                "ConformerModelRMSD3D": 0.4,
                "EffectiveRotorCount3D": 0,
                "ConformerCount3D": 1,
                "Morgan_128": [
                    0,
                    0,
                    1,
                    0,
                    0,
                    0,
                    0,
                    0,
                    0,
                    0,
                    0,
                    0,
                    0,
                    0,
                    0,
                    0,
                    0,
                    0,
                    0,
                    0,
                    0,
                    0,
                    0,
                    0,
                    0,
                    0,
                    0,
                    0,
                    0,
                    0,
                    0,
                    0,
                    0,
                    1,
                    0,
                    0,
                    0,
                    0,
                    1,
                    1,
                    0,
                    0,
                    0,
                    0,
                    0,
                    0,
                    0,
                    0,
                    0,
                    0,
                    0,
                    0,
                    0,
                    0,
                    0,
                    0,
                    0,
                    0,
                    0,
                    0,
                    0,
                    0,
                    0,
                    0,
                    0,
                    0,
                    0,
                    0,
                    0,
                    0,
                    0,
                    0,
                    0,
                    0,
                    0,
                    0,
                    0,
                    0,
                    0,
                    0,
                    1,
                    0,
                    0,
                    0,
                    0,
                    0,
                    0,
                    0,
                    0,
                    0,
                    0,
                    0,
                    0,
                    0,
                    1,
                    0,
                    0,
                    0,
                    0,
                    0,
                    0,
                    0,
                    0,
                    0,
                    0,
                    0,
                    0,
                    0,
                    0,
                    0,
                    0,
                    0,
                    0,
                    0,
                    0,
                    0,
                    0,
                    0,
                    0,
                    0,
                    0,
                    0,
                    0,
                    0,
                    0,
                    0,
                    0,
                    0
                ]
            }
        }
    ],
    "lower_detection_limit_log_ppm": -2.0,
    "upper_detection_limit_log_ppm": 1.0,
    "probe_material": [
        {
            "substance_name": "indium arsenide",
            "substance_type": "inorganic solid",
            "substance_descriptors": {
                "Number of Elements": 2,
                "Element Types": [
                    "In",
                    "As"
                ],
                "Number of Atoms in Unit Cell": 2,
                "Lattice Parameter a (\u00c5)": "6.058",
                "Lattice Parameter b (\u00c5)": "6.058",
                "Lattice Parameter c (\u00c5)": "6.058",
                "Lattice Angle alpha (degrees)": "90",
                "Lattice Angle beta (degrees)": "90",
                "Lattice Angle gamma (degrees)": "90",
                "Unit Cell Volume (\u00c5\u00b3)": 56.944276054273985,
                "Density (g/cm\u00b3)": 5.532953267871242,
                "Space Group Number": 216,
                "Is Metallic (1/0)": 1,
                "Band Gap (eV)": 0.0,
                "Formation Energy per Atom (eV)": -0.3885098062499992,
                "Energy Above Hull (eV/atom)": 0.0,
                "Energy per Atom (eV/atom)": -19.03157049,
                "Total Magnetization (\u03bcB)": 0.0,
                "Magnetic Ordering": "NM",
                "Bulk Modulus (GPa)": 48.543,
                "Shear Modulus (GPa)": 25.68,
                "Fermi Energy (eV)": 3.88498542,
                "Total Energy (eV)": -1.42821,
                "Crystal System": "cubic",
                "Magpie Descriptors": {
                    "MagpieData minimum Number": 33.0,
                    "MagpieData maximum Number": 49.0,
                    "MagpieData range Number": 16.0,
                    "MagpieData mean Number": 41.0,
                    "MagpieData avg_dev Number": 8.0,
                    "MagpieData mode Number": 33.0,
                    "MagpieData std_dev Number": 11.313708498984761,
                    "MagpieData minimum MendeleevNumber": 75.0,
                    "MagpieData maximum MendeleevNumber": 84.0,
                    "MagpieData range MendeleevNumber": 9.0,
                    "MagpieData mean MendeleevNumber": 79.5,
                    "MagpieData avg_dev MendeleevNumber": 4.5,
                    "MagpieData mode MendeleevNumber": 75.0,
                    "MagpieData std_dev MendeleevNumber": 6.363961030678928,
                    "MagpieData minimum AtomicWeight": 74.9216,
                    "MagpieData maximum AtomicWeight": 114.818,
                    "MagpieData range AtomicWeight": 39.8964,
                    "MagpieData mean AtomicWeight": 94.8698,
                    "MagpieData avg_dev AtomicWeight": 19.9482,
                    "MagpieData mode AtomicWeight": 74.9216,
                    "MagpieData std_dev AtomicWeight": 28.211014984930976,
                    "MagpieData minimum MeltingT": 429.75,
                    "MagpieData maximum MeltingT": 1090.0,
                    "MagpieData range MeltingT": 660.25,
                    "MagpieData mean MeltingT": 759.875,
                    "MagpieData avg_dev MeltingT": 330.125,
                    "MagpieData mode MeltingT": 429.75,
                    "MagpieData std_dev MeltingT": 466.867252278418,
                    "MagpieData minimum Column": 13.0,
                    "MagpieData maximum Column": 15.0,
                    "MagpieData range Column": 2.0,
                    "MagpieData mean Column": 14.0,
                    "MagpieData avg_dev Column": 1.0,
                    "MagpieData mode Column": 13.0,
                    "MagpieData std_dev Column": 1.4142135623730951,
                    "MagpieData minimum Row": 4.0,
                    "MagpieData maximum Row": 5.0,
                    "MagpieData range Row": 1.0,
                    "MagpieData mean Row": 4.5,
                    "MagpieData avg_dev Row": 0.5,
                    "MagpieData mode Row": 4.0,
                    "MagpieData std_dev Row": 0.7071067811865476,
                    "MagpieData minimum CovalentRadius": 119.0,
                    "MagpieData maximum CovalentRadius": 142.0,
                    "MagpieData range CovalentRadius": 23.0,
                    "MagpieData mean CovalentRadius": 130.5,
                    "MagpieData avg_dev CovalentRadius": 11.5,
                    "MagpieData mode CovalentRadius": 119.0,
                    "MagpieData std_dev CovalentRadius": 16.263455967290593,
                    "MagpieData minimum Electronegativity": 1.78,
                    "MagpieData maximum Electronegativity": 2.18,
                    "MagpieData range Electronegativity": 0.40000000000000013,
                    "MagpieData mean Electronegativity": 1.98,
                    "MagpieData avg_dev Electronegativity": 0.20000000000000007,
                    "MagpieData mode Electronegativity": 1.78,
                    "MagpieData std_dev Electronegativity": 0.28284271247461906,
                    "MagpieData minimum NsValence": 2.0,
                    "MagpieData maximum NsValence": 2.0,
                    "MagpieData range NsValence": 0.0,
                    "MagpieData mean NsValence": 2.0,
                    "MagpieData avg_dev NsValence": 0.0,
                    "MagpieData mode NsValence": 2.0,
                    "MagpieData std_dev NsValence": 0.0,
                    "MagpieData minimum NpValence": 1.0,
                    "MagpieData maximum NpValence": 3.0,
                    "MagpieData range NpValence": 2.0,
                    "MagpieData mean NpValence": 2.0,
                    "MagpieData avg_dev NpValence": 1.0,
                    "MagpieData mode NpValence": 1.0,
                    "MagpieData std_dev NpValence": 1.4142135623730951,
                    "MagpieData minimum NdValence": 10.0,
                    "MagpieData maximum NdValence": 10.0,
                    "MagpieData range NdValence": 0.0,
                    "MagpieData mean NdValence": 10.0,
                    "MagpieData avg_dev NdValence": 0.0,
                    "MagpieData mode NdValence": 10.0,
                    "MagpieData std_dev NdValence": 0.0,
                    "MagpieData minimum NfValence": 0.0,
                    "MagpieData maximum NfValence": 0.0,
                    "MagpieData range NfValence": 0.0,
                    "MagpieData mean NfValence": 0.0,
                    "MagpieData avg_dev NfValence": 0.0,
                    "MagpieData mode NfValence": 0.0,
                    "MagpieData std_dev NfValence": 0.0,
                    "MagpieData minimum NValence": 13.0,
                    "MagpieData maximum NValence": 15.0,
                    "MagpieData range NValence": 2.0,
                    "MagpieData mean NValence": 14.0,
                    "MagpieData avg_dev NValence": 1.0,
                    "MagpieData mode NValence": 13.0,
                    "MagpieData std_dev NValence": 1.4142135623730951,
                    "MagpieData minimum NsUnfilled": 0.0,
                    "MagpieData maximum NsUnfilled": 0.0,
                    "MagpieData range NsUnfilled": 0.0,
                    "MagpieData mean NsUnfilled": 0.0,
                    "MagpieData avg_dev NsUnfilled": 0.0,
                    "MagpieData mode NsUnfilled": 0.0,
                    "MagpieData std_dev NsUnfilled": 0.0,
                    "MagpieData minimum NpUnfilled": 3.0,
                    "MagpieData maximum NpUnfilled": 5.0,
                    "MagpieData range NpUnfilled": 2.0,
                    "MagpieData mean NpUnfilled": 4.0,
                    "MagpieData avg_dev NpUnfilled": 1.0,
                    "MagpieData mode NpUnfilled": 3.0,
                    "MagpieData std_dev NpUnfilled": 1.4142135623730951,
                    "MagpieData minimum NdUnfilled": 0.0,
                    "MagpieData maximum NdUnfilled": 0.0,
                    "MagpieData range NdUnfilled": 0.0,
                    "MagpieData mean NdUnfilled": 0.0,
                    "MagpieData avg_dev NdUnfilled": 0.0,
                    "MagpieData mode NdUnfilled": 0.0,
                    "MagpieData std_dev NdUnfilled": 0.0,
                    "MagpieData minimum NfUnfilled": 0.0,
                    "MagpieData maximum NfUnfilled": 0.0,
                    "MagpieData range NfUnfilled": 0.0,
                    "MagpieData mean NfUnfilled": 0.0,
                    "MagpieData avg_dev NfUnfilled": 0.0,
                    "MagpieData mode NfUnfilled": 0.0,
                    "MagpieData std_dev NfUnfilled": 0.0,
                    "MagpieData minimum NUnfilled": 3.0,
                    "MagpieData maximum NUnfilled": 5.0,
                    "MagpieData range NUnfilled": 2.0,
                    "MagpieData mean NUnfilled": 4.0,
                    "MagpieData avg_dev NUnfilled": 1.0,
                    "MagpieData mode NUnfilled": 3.0,
                    "MagpieData std_dev NUnfilled": 1.4142135623730951,
                    "MagpieData minimum GSvolume_pa": 22.175,
                    "MagpieData maximum GSvolume_pa": 24.26,
                    "MagpieData range GSvolume_pa": 2.085000000000001,
                    "MagpieData mean GSvolume_pa": 23.2175,
                    "MagpieData avg_dev GSvolume_pa": 1.0425000000000004,
                    "MagpieData mode GSvolume_pa": 22.175,
                    "MagpieData std_dev GSvolume_pa": 1.4743176387739523,
                    "MagpieData minimum GSbandgap": 0.0,
                    "MagpieData maximum GSbandgap": 0.0,
                    "MagpieData range GSbandgap": 0.0,
                    "MagpieData mean GSbandgap": 0.0,
                    "MagpieData avg_dev GSbandgap": 0.0,
                    "MagpieData mode GSbandgap": 0.0,
                    "MagpieData std_dev GSbandgap": 0.0,
                    "MagpieData minimum GSmagmom": 0.0,
                    "MagpieData maximum GSmagmom": 0.0,
                    "MagpieData range GSmagmom": 0.0,
                    "MagpieData mean GSmagmom": 0.0,
                    "MagpieData avg_dev GSmagmom": 0.0,
                    "MagpieData mode GSmagmom": 0.0,
                    "MagpieData std_dev GSmagmom": 0.0,
                    "MagpieData minimum SpaceGroupNumber": 139.0,
                    "MagpieData maximum SpaceGroupNumber": 166.0,
                    "MagpieData range SpaceGroupNumber": 27.0,
                    "MagpieData mean SpaceGroupNumber": 152.5,
                    "MagpieData avg_dev SpaceGroupNumber": 13.5,
                    "MagpieData mode SpaceGroupNumber": 139.0,
                    "MagpieData std_dev SpaceGroupNumber": 19.091883092036785
                }
            }
        }
    ],
    "test_operating_temperature_celsius": 25.0,
    "min_pH_when_testing": -1.0,
    "max_pH_when_testing": -1.0,
    "test_medium_electrolyte": [
        {
            "substance_name": "nitrogen",
            "substance_type": "small molecule",
            "substance_descriptors": {
                "CID": 947,
                "MolecularFormula": "N2",
                "MolecularWeight": "28.014",
                "CanonicalSMILES": "N#N",
                "IsomericSMILES": "N#N",
                "InChI": "InChI=1S/N2/c1-2",
                "InChIKey": "IJGRMHOSHXDMSA-UHFFFAOYSA-N",
                "IUPACName": "molecular nitrogen",
                "XLogP": 0.1,
                "ExactMass": "28.006148008",
                "MonoisotopicMass": "28.006148008",
                "TPSA": 47.6,
                "Complexity": 8,
                "Charge": 0,
                "HBondDonorCount": 0,
                "HBondAcceptorCount": 2,
                "RotatableBondCount": 0,
                "HeavyAtomCount": 2,
                "IsotopeAtomCount": 0,
                "AtomStereoCount": 0,
                "DefinedAtomStereoCount": 0,
                "UndefinedAtomStereoCount": 0,
                "BondStereoCount": 0,
                "DefinedBondStereoCount": 0,
                "UndefinedBondStereoCount": 0,
                "CovalentUnitCount": 1,
                "Volume3D": 23.1,
                "XStericQuadrupole3D": 0.82,
                "YStericQuadrupole3D": 0.51,
                "ZStericQuadrupole3D": 0.51,
                "FeatureAcceptorCount3D": 0,
                "FeatureDonorCount3D": 0,
                "FeatureAnionCount3D": 0,
                "FeatureCationCount3D": 0,
                "FeatureRingCount3D": 0,
                "FeatureHydrophobeCount3D": 0,
                "ConformerModelRMSD3D": 0.4,
                "EffectiveRotorCount3D": 0,
                "ConformerCount3D": 1,
                "Morgan_128": [
                    0,
                    0,
                    0,
                    0,
                    0,
                    0,
                    0,
                    0,
                    0,
                    0,
                    0,
                    0,
                    0,
                    0,
                    0,
                    0,
                    0,
                    0,
                    0,
                    0,
                    0,
                    0,
                    0,
                    0,
                    0,
                    0,
                    0,
                    0,
                    0,
                    0,
                    0,
                    0,
                    0,
                    0,
                    0,
                    0,
                    0,
                    0,
                    0,
                    0,
                    0,
                    0,
                    0,
                    0,
                    0,
                    0,
                    0,
                    0,
                    0,
                    0,
                    0,
                    0,
                    0,
                    0,
                    0,
                    0,
                    0,
                    0,
                    0,
                    0,
                    0,
                    0,
                    0,
                    0,
                    0,
                    0,
                    0,
                    0,
                    0,
                    0,
                    0,
                    0,
                    0,
                    0,
                    0,
                    0,
                    1,
                    0,
                    0,
                    0,
                    0,
                    0,
                    0,
                    0,
                    0,
                    0,
                    0,
                    0,
                    0,
                    0,
                    0,
                    0,
                    0,
                    0,
                    0,
                    0,
                    0,
                    0,
                    0,
                    0,
                    0,
                    0,
                    0,
                    0,
                    1,
                    0,
                    0,
                    0,
                    0,
                    0,
                    0,
                    0,
                    0,
                    0,
                    0,
                    0,
                    0,
                    0,
                    0,
                    0,
                    0,
                    0,
                    0,
                    0,
                    0,
                    0,
                    0,
                    0
                ]
            }
        }
    ],
    "LDL_ranking": 1.0,
    "UDL_ranking": 1.0,
    "LDL_category": "Moderate Detection",
    "UDL_category": "Moderate UDL Range"
}