{
    "DOI": "10.1016/j.sse.2019.107648",
    "sensor_type": "gas",
    "detect_target": [
        {
            "substance_name": "acetone",
            "substance_type": "small molecule",
            "substance_descriptors": {
                "CID": 180,
                "MolecularFormula": "C3H6O",
                "MolecularWeight": "58.08",
                "CanonicalSMILES": "CC(=O)C",
                "IsomericSMILES": "CC(=O)C",
                "InChI": "InChI=1S/C3H6O/c1-3(2)4/h1-2H3",
                "InChIKey": "CSCPPACGZOOCGX-UHFFFAOYSA-N",
                "IUPACName": "propan-2-one",
                "XLogP": -0.1,
                "ExactMass": "58.041864811",
                "MonoisotopicMass": "58.041864811",
                "TPSA": 17.1,
                "Complexity": 26,
                "Charge": 0,
                "HBondDonorCount": 0,
                "HBondAcceptorCount": 1,
                "RotatableBondCount": 0,
                "HeavyAtomCount": 4,
                "IsotopeAtomCount": 0,
                "AtomStereoCount": 0,
                "DefinedAtomStereoCount": 0,
                "UndefinedAtomStereoCount": 0,
                "BondStereoCount": 0,
                "DefinedBondStereoCount": 0,
                "UndefinedBondStereoCount": 0,
                "CovalentUnitCount": 1,
                "Volume3D": 52.8,
                "XStericQuadrupole3D": 1.48,
                "YStericQuadrupole3D": 1.18,
                "ZStericQuadrupole3D": 0.59,
                "FeatureAcceptorCount3D": 1,
                "FeatureDonorCount3D": 0,
                "FeatureAnionCount3D": 0,
                "FeatureCationCount3D": 0,
                "FeatureRingCount3D": 0,
                "FeatureHydrophobeCount3D": 0,
                "ConformerModelRMSD3D": 0.4,
                "EffectiveRotorCount3D": 0,
                "ConformerCount3D": 1,
                "Morgan_128": [
                    0,
                    0,
                    0,
                    0,
                    0,
                    0,
                    0,
                    0,
                    0,
                    0,
                    1,
                    0,
                    0,
                    1,
                    0,
                    0,
                    0,
                    0,
                    0,
                    0,
                    0,
                    0,
                    0,
                    0,
                    0,
                    0,
                    0,
                    0,
                    0,
                    0,
                    0,
                    0,
                    0,
                    1,
                    0,
                    0,
                    0,
                    0,
                    0,
                    1,
                    0,
                    0,
                    0,
                    0,
                    0,
                    0,
                    0,
                    0,
                    0,
                    0,
                    0,
                    0,
                    0,
                    0,
                    0,
                    0,
                    0,
                    0,
                    0,
                    0,
                    0,
                    0,
                    0,
                    0,
                    0,
                    0,
                    0,
                    0,
                    0,
                    0,
                    0,
                    0,
                    0,
                    0,
                    0,
                    0,
                    0,
                    0,
                    0,
                    0,
                    0,
                    0,
                    0,
                    0,
                    0,
                    0,
                    0,
                    0,
                    0,
                    0,
                    0,
                    0,
                    0,
                    0,
                    0,
                    0,
                    0,
                    0,
                    0,
                    0,
                    0,
                    0,
                    0,
                    0,
                    0,
                    0,
                    0,
                    0,
                    0,
                    0,
                    0,
                    0,
                    0,
                    0,
                    0,
                    0,
                    0,
                    0,
                    0,
                    0,
                    0,
                    1,
                    0,
                    0,
                    0,
                    1,
                    0,
                    0
                ]
            }
        }
    ],
    "lower_detection_limit_log_ppm": 0.698970004,
    "upper_detection_limit_log_ppm": 3.301029996,
    "probe_material": [
        {
            "substance_name": "manganese dioxide",
            "substance_type": "inorganic solid",
            "substance_descriptors": {
                "Number of Elements": 2,
                "Element Types": [
                    "O",
                    "Mn"
                ],
                "Number of Atoms in Unit Cell": 6,
                "Lattice Parameter a (\u00c5)": "4.4041",
                "Lattice Parameter b (\u00c5)": "4.4041",
                "Lattice Parameter c (\u00c5)": "2.8765",
                "Lattice Angle alpha (degrees)": "90",
                "Lattice Angle beta (degrees)": "90",
                "Lattice Angle gamma (degrees)": "90",
                "Unit Cell Volume (\u00c5\u00b3)": 55.51718726906692,
                "Density (g/cm\u00b3)": 5.200624691225469,
                "Space Group Number": 136,
                "Is Metallic (1/0)": 1,
                "Band Gap (eV)": 0.0,
                "Formation Energy per Atom (eV)": -1.813246020143681,
                "Energy Above Hull (eV/atom)": 0.006413425555553687,
                "Energy per Atom (eV/atom)": -8.168760265833336,
                "Total Magnetization (\u03bcB)": 6.0201511,
                "Magnetic Ordering": "FM",
                "Bulk Modulus (GPa)": 225.94,
                "Shear Modulus (GPa)": 137.99,
                "Fermi Energy (eV)": 2.86173232,
                "Total Energy (eV)": -5.81882,
                "Crystal System": "tetragonal",
                "Magpie Descriptors": {
                    "MagpieData minimum Number": 8.0,
                    "MagpieData maximum Number": 25.0,
                    "MagpieData range Number": 17.0,
                    "MagpieData mean Number": 19.333333333333332,
                    "MagpieData avg_dev Number": 7.555555555555555,
                    "MagpieData mode Number": 25.0,
                    "MagpieData std_dev Number": 12.020815280171307,
                    "MagpieData minimum MendeleevNumber": 52.0,
                    "MagpieData maximum MendeleevNumber": 87.0,
                    "MagpieData range MendeleevNumber": 35.0,
                    "MagpieData mean MendeleevNumber": 63.666666666666664,
                    "MagpieData avg_dev MendeleevNumber": 15.555555555555554,
                    "MagpieData mode MendeleevNumber": 52.0,
                    "MagpieData std_dev MendeleevNumber": 24.748737341529164,
                    "MagpieData minimum AtomicWeight": 15.9994,
                    "MagpieData maximum AtomicWeight": 54.938045,
                    "MagpieData range AtomicWeight": 38.938645,
                    "MagpieData mean AtomicWeight": 41.95849666666666,
                    "MagpieData avg_dev AtomicWeight": 17.306064444444445,
                    "MagpieData mode AtomicWeight": 54.938045,
                    "MagpieData std_dev AtomicWeight": 27.533779929715653,
                    "MagpieData minimum MeltingT": 54.8,
                    "MagpieData maximum MeltingT": 1519.0,
                    "MagpieData range MeltingT": 1464.2,
                    "MagpieData mean MeltingT": 1030.9333333333334,
                    "MagpieData avg_dev MeltingT": 650.7555555555555,
                    "MagpieData mode MeltingT": 1519.0,
                    "MagpieData std_dev MeltingT": 1035.3457490133428,
                    "MagpieData minimum Column": 7.0,
                    "MagpieData maximum Column": 16.0,
                    "MagpieData range Column": 9.0,
                    "MagpieData mean Column": 10.0,
                    "MagpieData avg_dev Column": 4.0,
                    "MagpieData mode Column": 7.0,
                    "MagpieData std_dev Column": 6.363961030678928,
                    "MagpieData minimum Row": 2.0,
                    "MagpieData maximum Row": 4.0,
                    "MagpieData range Row": 2.0,
                    "MagpieData mean Row": 3.333333333333333,
                    "MagpieData avg_dev Row": 0.888888888888889,
                    "MagpieData mode Row": 4.0,
                    "MagpieData std_dev Row": 1.4142135623730951,
                    "MagpieData minimum CovalentRadius": 66.0,
                    "MagpieData maximum CovalentRadius": 139.0,
                    "MagpieData range CovalentRadius": 73.0,
                    "MagpieData mean CovalentRadius": 114.66666666666666,
                    "MagpieData avg_dev CovalentRadius": 32.44444444444444,
                    "MagpieData mode CovalentRadius": 139.0,
                    "MagpieData std_dev CovalentRadius": 51.61879502661797,
                    "MagpieData minimum Electronegativity": 1.55,
                    "MagpieData maximum Electronegativity": 3.44,
                    "MagpieData range Electronegativity": 1.89,
                    "MagpieData mean Electronegativity": 2.1799999999999997,
                    "MagpieData avg_dev Electronegativity": 0.8399999999999999,
                    "MagpieData mode Electronegativity": 1.55,
                    "MagpieData std_dev Electronegativity": 1.3364318164425748,
                    "MagpieData minimum NsValence": 2.0,
                    "MagpieData maximum NsValence": 2.0,
                    "MagpieData range NsValence": 0.0,
                    "MagpieData mean NsValence": 2.0,
                    "MagpieData avg_dev NsValence": 0.0,
                    "MagpieData mode NsValence": 2.0,
                    "MagpieData std_dev NsValence": 0.0,
                    "MagpieData minimum NpValence": 0.0,
                    "MagpieData maximum NpValence": 4.0,
                    "MagpieData range NpValence": 4.0,
                    "MagpieData mean NpValence": 1.3333333333333333,
                    "MagpieData avg_dev NpValence": 1.7777777777777777,
                    "MagpieData mode NpValence": 0.0,
                    "MagpieData std_dev NpValence": 2.8284271247461903,
                    "MagpieData minimum NdValence": 0.0,
                    "MagpieData maximum NdValence": 5.0,
                    "MagpieData range NdValence": 5.0,
                    "MagpieData mean NdValence": 3.333333333333333,
                    "MagpieData avg_dev NdValence": 2.2222222222222223,
                    "MagpieData mode NdValence": 5.0,
                    "MagpieData std_dev NdValence": 3.5355339059327378,
                    "MagpieData minimum NfValence": 0.0,
                    "MagpieData maximum NfValence": 0.0,
                    "MagpieData range NfValence": 0.0,
                    "MagpieData mean NfValence": 0.0,
                    "MagpieData avg_dev NfValence": 0.0,
                    "MagpieData mode NfValence": 0.0,
                    "MagpieData std_dev NfValence": 0.0,
                    "MagpieData minimum NValence": 6.0,
                    "MagpieData maximum NValence": 7.0,
                    "MagpieData range NValence": 1.0,
                    "MagpieData mean NValence": 6.666666666666666,
                    "MagpieData avg_dev NValence": 0.44444444444444464,
                    "MagpieData mode NValence": 7.0,
                    "MagpieData std_dev NValence": 0.7071067811865476,
                    "MagpieData minimum NsUnfilled": 0.0,
                    "MagpieData maximum NsUnfilled": 0.0,
                    "MagpieData range NsUnfilled": 0.0,
                    "MagpieData mean NsUnfilled": 0.0,
                    "MagpieData avg_dev NsUnfilled": 0.0,
                    "MagpieData mode NsUnfilled": 0.0,
                    "MagpieData std_dev NsUnfilled": 0.0,
                    "MagpieData minimum NpUnfilled": 0.0,
                    "MagpieData maximum NpUnfilled": 2.0,
                    "MagpieData range NpUnfilled": 2.0,
                    "MagpieData mean NpUnfilled": 0.6666666666666666,
                    "MagpieData avg_dev NpUnfilled": 0.8888888888888888,
                    "MagpieData mode NpUnfilled": 0.0,
                    "MagpieData std_dev NpUnfilled": 1.4142135623730951,
                    "MagpieData minimum NdUnfilled": 0.0,
                    "MagpieData maximum NdUnfilled": 5.0,
                    "MagpieData range NdUnfilled": 5.0,
                    "MagpieData mean NdUnfilled": 3.333333333333333,
                    "MagpieData avg_dev NdUnfilled": 2.2222222222222223,
                    "MagpieData mode NdUnfilled": 5.0,
                    "MagpieData std_dev NdUnfilled": 3.5355339059327378,
                    "MagpieData minimum NfUnfilled": 0.0,
                    "MagpieData maximum NfUnfilled": 0.0,
                    "MagpieData range NfUnfilled": 0.0,
                    "MagpieData mean NfUnfilled": 0.0,
                    "MagpieData avg_dev NfUnfilled": 0.0,
                    "MagpieData mode NfUnfilled": 0.0,
                    "MagpieData std_dev NfUnfilled": 0.0,
                    "MagpieData minimum NUnfilled": 2.0,
                    "MagpieData maximum NUnfilled": 5.0,
                    "MagpieData range NUnfilled": 3.0,
                    "MagpieData mean NUnfilled": 3.9999999999999996,
                    "MagpieData avg_dev NUnfilled": 1.3333333333333335,
                    "MagpieData mode NUnfilled": 5.0,
                    "MagpieData std_dev NUnfilled": 2.1213203435596424,
                    "MagpieData minimum GSvolume_pa": 9.105,
                    "MagpieData maximum GSvolume_pa": 10.4875862069,
                    "MagpieData range GSvolume_pa": 1.3825862068999992,
                    "MagpieData mean GSvolume_pa": 10.026724137933332,
                    "MagpieData avg_dev GSvolume_pa": 0.6144827586222222,
                    "MagpieData mode GSvolume_pa": 10.4875862069,
                    "MagpieData std_dev GSvolume_pa": 0.9776360824739765,
                    "MagpieData minimum GSbandgap": 0.0,
                    "MagpieData maximum GSbandgap": 0.0,
                    "MagpieData range GSbandgap": 0.0,
                    "MagpieData mean GSbandgap": 0.0,
                    "MagpieData avg_dev GSbandgap": 0.0,
                    "MagpieData mode GSbandgap": 0.0,
                    "MagpieData std_dev GSbandgap": 0.0,
                    "MagpieData minimum GSmagmom": 0.0,
                    "MagpieData maximum GSmagmom": 0.000310120689655,
                    "MagpieData range GSmagmom": 0.000310120689655,
                    "MagpieData mean GSmagmom": 0.00020674712643666666,
                    "MagpieData avg_dev GSmagmom": 0.00013783141762444443,
                    "MagpieData mode GSmagmom": 0.000310120689655,
                    "MagpieData std_dev GSmagmom": 0.00021928844264129928,
                    "MagpieData minimum SpaceGroupNumber": 12.0,
                    "MagpieData maximum SpaceGroupNumber": 217.0,
                    "MagpieData range SpaceGroupNumber": 205.0,
                    "MagpieData mean SpaceGroupNumber": 148.66666666666666,
                    "MagpieData avg_dev SpaceGroupNumber": 91.11111111111111,
                    "MagpieData mode SpaceGroupNumber": 217.0,
                    "MagpieData std_dev SpaceGroupNumber": 144.95689014324225
                }
            }
        },
        {
            "substance_name": "zinc oxide",
            "substance_type": "inorganic solid",
            "substance_descriptors": {
                "Number of Elements": 2,
                "Element Types": [
                    "O",
                    "Zn"
                ],
                "Number of Atoms in Unit Cell": 4,
                "Lattice Parameter a (\u00c5)": "3.22",
                "Lattice Parameter b (\u00c5)": "3.22",
                "Lattice Parameter c (\u00c5)": "5.2",
                "Lattice Angle alpha (degrees)": "90",
                "Lattice Angle beta (degrees)": "90",
                "Lattice Angle gamma (degrees)": "120",
                "Unit Cell Volume (\u00c5\u00b3)": 47.397148259900405,
                "Density (g/cm\u00b3)": 5.70421780686615,
                "Space Group Number": 186,
                "Band Gap (eV)": 0.7227,
                "Is Metallic (1/0)": 0,
                "Formation Energy per Atom (eV)": -1.647445170000001,
                "Energy Above Hull (eV/atom)": 0.0,
                "Energy per Atom (eV/atom)": -9.083071735,
                "Total Magnetization (\u03bcB)": 0.0,
                "Magnetic Ordering": "NM",
                "Bulk Modulus (GPa)": 128.167,
                "Shear Modulus (GPa)": 42.921,
                "Fermi Energy (eV)": 0.8923141,
                "Total Energy (eV)": -2.14542,
                "Crystal System": "hexagonal",
                "Magpie Descriptors": {
                    "MagpieData minimum Number": 8.0,
                    "MagpieData maximum Number": 30.0,
                    "MagpieData range Number": 22.0,
                    "MagpieData mean Number": 19.0,
                    "MagpieData avg_dev Number": 11.0,
                    "MagpieData mode Number": 8.0,
                    "MagpieData std_dev Number": 15.556349186104045,
                    "MagpieData minimum MendeleevNumber": 69.0,
                    "MagpieData maximum MendeleevNumber": 87.0,
                    "MagpieData range MendeleevNumber": 18.0,
                    "MagpieData mean MendeleevNumber": 78.0,
                    "MagpieData avg_dev MendeleevNumber": 9.0,
                    "MagpieData mode MendeleevNumber": 69.0,
                    "MagpieData std_dev MendeleevNumber": 12.727922061357855,
                    "MagpieData minimum AtomicWeight": 15.9994,
                    "MagpieData maximum AtomicWeight": 65.38,
                    "MagpieData range AtomicWeight": 49.380599999999994,
                    "MagpieData mean AtomicWeight": 40.689699999999995,
                    "MagpieData avg_dev AtomicWeight": 24.690299999999997,
                    "MagpieData mode AtomicWeight": 15.9994,
                    "MagpieData std_dev AtomicWeight": 34.917357119060426,
                    "MagpieData minimum MeltingT": 54.8,
                    "MagpieData maximum MeltingT": 692.68,
                    "MagpieData range MeltingT": 637.88,
                    "MagpieData mean MeltingT": 373.73999999999995,
                    "MagpieData avg_dev MeltingT": 318.93999999999994,
                    "MagpieData mode MeltingT": 54.8,
                    "MagpieData std_dev MeltingT": 451.0492735832749,
                    "MagpieData minimum Column": 12.0,
                    "MagpieData maximum Column": 16.0,
                    "MagpieData range Column": 4.0,
                    "MagpieData mean Column": 14.0,
                    "MagpieData avg_dev Column": 2.0,
                    "MagpieData mode Column": 12.0,
                    "MagpieData std_dev Column": 2.8284271247461903,
                    "MagpieData minimum Row": 2.0,
                    "MagpieData maximum Row": 4.0,
                    "MagpieData range Row": 2.0,
                    "MagpieData mean Row": 3.0,
                    "MagpieData avg_dev Row": 1.0,
                    "MagpieData mode Row": 2.0,
                    "MagpieData std_dev Row": 1.4142135623730951,
                    "MagpieData minimum CovalentRadius": 66.0,
                    "MagpieData maximum CovalentRadius": 122.0,
                    "MagpieData range CovalentRadius": 56.0,
                    "MagpieData mean CovalentRadius": 94.0,
                    "MagpieData avg_dev CovalentRadius": 28.0,
                    "MagpieData mode CovalentRadius": 66.0,
                    "MagpieData std_dev CovalentRadius": 39.59797974644666,
                    "MagpieData minimum Electronegativity": 1.65,
                    "MagpieData maximum Electronegativity": 3.44,
                    "MagpieData range Electronegativity": 1.79,
                    "MagpieData mean Electronegativity": 2.545,
                    "MagpieData avg_dev Electronegativity": 0.895,
                    "MagpieData mode Electronegativity": 1.65,
                    "MagpieData std_dev Electronegativity": 1.26572113832392,
                    "MagpieData minimum NsValence": 2.0,
                    "MagpieData maximum NsValence": 2.0,
                    "MagpieData range NsValence": 0.0,
                    "MagpieData mean NsValence": 2.0,
                    "MagpieData avg_dev NsValence": 0.0,
                    "MagpieData mode NsValence": 2.0,
                    "MagpieData std_dev NsValence": 0.0,
                    "MagpieData minimum NpValence": 0.0,
                    "MagpieData maximum NpValence": 4.0,
                    "MagpieData range NpValence": 4.0,
                    "MagpieData mean NpValence": 2.0,
                    "MagpieData avg_dev NpValence": 2.0,
                    "MagpieData mode NpValence": 0.0,
                    "MagpieData std_dev NpValence": 2.8284271247461903,
                    "MagpieData minimum NdValence": 0.0,
                    "MagpieData maximum NdValence": 10.0,
                    "MagpieData range NdValence": 10.0,
                    "MagpieData mean NdValence": 5.0,
                    "MagpieData avg_dev NdValence": 5.0,
                    "MagpieData mode NdValence": 0.0,
                    "MagpieData std_dev NdValence": 7.0710678118654755,
                    "MagpieData minimum NfValence": 0.0,
                    "MagpieData maximum NfValence": 0.0,
                    "MagpieData range NfValence": 0.0,
                    "MagpieData mean NfValence": 0.0,
                    "MagpieData avg_dev NfValence": 0.0,
                    "MagpieData mode NfValence": 0.0,
                    "MagpieData std_dev NfValence": 0.0,
                    "MagpieData minimum NValence": 6.0,
                    "MagpieData maximum NValence": 12.0,
                    "MagpieData range NValence": 6.0,
                    "MagpieData mean NValence": 9.0,
                    "MagpieData avg_dev NValence": 3.0,
                    "MagpieData mode NValence": 6.0,
                    "MagpieData std_dev NValence": 4.242640687119285,
                    "MagpieData minimum NsUnfilled": 0.0,
                    "MagpieData maximum NsUnfilled": 0.0,
                    "MagpieData range NsUnfilled": 0.0,
                    "MagpieData mean NsUnfilled": 0.0,
                    "MagpieData avg_dev NsUnfilled": 0.0,
                    "MagpieData mode NsUnfilled": 0.0,
                    "MagpieData std_dev NsUnfilled": 0.0,
                    "MagpieData minimum NpUnfilled": 0.0,
                    "MagpieData maximum NpUnfilled": 2.0,
                    "MagpieData range NpUnfilled": 2.0,
                    "MagpieData mean NpUnfilled": 1.0,
                    "MagpieData avg_dev NpUnfilled": 1.0,
                    "MagpieData mode NpUnfilled": 0.0,
                    "MagpieData std_dev NpUnfilled": 1.4142135623730951,
                    "MagpieData minimum NdUnfilled": 0.0,
                    "MagpieData maximum NdUnfilled": 0.0,
                    "MagpieData range NdUnfilled": 0.0,
                    "MagpieData mean NdUnfilled": 0.0,
                    "MagpieData avg_dev NdUnfilled": 0.0,
                    "MagpieData mode NdUnfilled": 0.0,
                    "MagpieData std_dev NdUnfilled": 0.0,
                    "MagpieData minimum NfUnfilled": 0.0,
                    "MagpieData maximum NfUnfilled": 0.0,
                    "MagpieData range NfUnfilled": 0.0,
                    "MagpieData mean NfUnfilled": 0.0,
                    "MagpieData avg_dev NfUnfilled": 0.0,
                    "MagpieData mode NfUnfilled": 0.0,
                    "MagpieData std_dev NfUnfilled": 0.0,
                    "MagpieData minimum NUnfilled": 0.0,
                    "MagpieData maximum NUnfilled": 2.0,
                    "MagpieData range NUnfilled": 2.0,
                    "MagpieData mean NUnfilled": 1.0,
                    "MagpieData avg_dev NUnfilled": 1.0,
                    "MagpieData mode NUnfilled": 0.0,
                    "MagpieData std_dev NUnfilled": 1.4142135623730951,
                    "MagpieData minimum GSvolume_pa": 9.105,
                    "MagpieData maximum GSvolume_pa": 13.96,
                    "MagpieData range GSvolume_pa": 4.855,
                    "MagpieData mean GSvolume_pa": 11.5325,
                    "MagpieData avg_dev GSvolume_pa": 2.4275,
                    "MagpieData mode GSvolume_pa": 9.105,
                    "MagpieData std_dev GSvolume_pa": 3.4330034226606885,
                    "MagpieData minimum GSbandgap": 0.0,
                    "MagpieData maximum GSbandgap": 0.0,
                    "MagpieData range GSbandgap": 0.0,
                    "MagpieData mean GSbandgap": 0.0,
                    "MagpieData avg_dev GSbandgap": 0.0,
                    "MagpieData mode GSbandgap": 0.0,
                    "MagpieData std_dev GSbandgap": 0.0,
                    "MagpieData minimum GSmagmom": 0.0,
                    "MagpieData maximum GSmagmom": 0.0,
                    "MagpieData range GSmagmom": 0.0,
                    "MagpieData mean GSmagmom": 0.0,
                    "MagpieData avg_dev GSmagmom": 0.0,
                    "MagpieData mode GSmagmom": 0.0,
                    "MagpieData std_dev GSmagmom": 0.0,
                    "MagpieData minimum SpaceGroupNumber": 12.0,
                    "MagpieData maximum SpaceGroupNumber": 194.0,
                    "MagpieData range SpaceGroupNumber": 182.0,
                    "MagpieData mean SpaceGroupNumber": 103.0,
                    "MagpieData avg_dev SpaceGroupNumber": 91.0,
                    "MagpieData mode SpaceGroupNumber": 12.0,
                    "MagpieData std_dev SpaceGroupNumber": 128.69343417595164
                }
            }
        }
    ],
    "test_operating_temperature_celsius": 340.0,
    "min_pH_when_testing": -1.0,
    "max_pH_when_testing": -1.0,
    "test_medium_electrolyte": [
        {
            "substance_name": "oxygen",
            "substance_type": "small molecule",
            "substance_descriptors": {
                "CID": 977,
                "MolecularFormula": "O2",
                "MolecularWeight": "31.999",
                "CanonicalSMILES": "O=O",
                "IsomericSMILES": "O=O",
                "InChI": "InChI=1S/O2/c1-2",
                "InChIKey": "MYMOFIZGZYHOMD-UHFFFAOYSA-N",
                "IUPACName": "molecular oxygen",
                "XLogP": -1.1,
                "ExactMass": "31.989829239",
                "MonoisotopicMass": "31.989829239",
                "TPSA": 34.1,
                "Complexity": 0,
                "Charge": 0,
                "HBondDonorCount": 0,
                "HBondAcceptorCount": 2,
                "RotatableBondCount": 0,
                "HeavyAtomCount": 2,
                "IsotopeAtomCount": 0,
                "AtomStereoCount": 0,
                "DefinedAtomStereoCount": 0,
                "UndefinedAtomStereoCount": 0,
                "BondStereoCount": 0,
                "DefinedBondStereoCount": 0,
                "UndefinedBondStereoCount": 0,
                "CovalentUnitCount": 1,
                "Volume3D": 22.9,
                "XStericQuadrupole3D": 0.87,
                "YStericQuadrupole3D": 0.49,
                "ZStericQuadrupole3D": 0.49,
                "FeatureAcceptorCount3D": 0,
                "FeatureDonorCount3D": 0,
                "FeatureAnionCount3D": 0,
                "FeatureCationCount3D": 0,
                "FeatureRingCount3D": 0,
                "FeatureHydrophobeCount3D": 0,
                "ConformerModelRMSD3D": 0.4,
                "EffectiveRotorCount3D": 0,
                "ConformerCount3D": 1,
                "Morgan_128": [
                    0,
                    0,
                    0,
                    0,
                    0,
                    0,
                    0,
                    0,
                    0,
                    0,
                    1,
                    0,
                    0,
                    0,
                    0,
                    0,
                    1,
                    0,
                    0,
                    0,
                    0,
                    0,
                    0,
                    0,
                    0,
                    0,
                    0,
                    0,
                    0,
                    0,
                    0,
                    0,
                    0,
                    0,
                    0,
                    0,
                    0,
                    0,
                    0,
                    0,
                    0,
                    0,
                    0,
                    0,
                    0,
                    0,
                    0,
                    0,
                    0,
                    0,
                    0,
                    0,
                    0,
                    0,
                    0,
                    0,
                    0,
                    0,
                    0,
                    0,
                    0,
                    0,
                    0,
                    0,
                    0,
                    0,
                    0,
                    0,
                    0,
                    0,
                    0,
                    0,
                    0,
                    0,
                    0,
                    0,
                    0,
                    0,
                    0,
                    0,
                    0,
                    0,
                    0,
                    0,
                    0,
                    0,
                    0,
                    0,
                    0,
                    0,
                    0,
                    0,
                    0,
                    0,
                    0,
                    0,
                    0,
                    0,
                    0,
                    0,
                    0,
                    0,
                    0,
                    0,
                    0,
                    0,
                    0,
                    0,
                    0,
                    0,
                    0,
                    0,
                    0,
                    0,
                    0,
                    0,
                    0,
                    0,
                    0,
                    0,
                    0,
                    0,
                    0,
                    0,
                    0,
                    0,
                    0,
                    0
                ]
            }
        },
        {
            "substance_name": "argon",
            "substance_type": "small molecule",
            "substance_descriptors": {
                "CID": 23968,
                "MolecularFormula": "Ar",
                "MolecularWeight": "39.9",
                "CanonicalSMILES": "[Ar]",
                "IsomericSMILES": "[Ar]",
                "InChI": "InChI=1S/Ar",
                "InChIKey": "XKRFYHLGVUSROY-UHFFFAOYSA-N",
                "IUPACName": "argon",
                "ExactMass": "39.96238312",
                "MonoisotopicMass": "39.96238312",
                "TPSA": 0,
                "Complexity": 0,
                "Charge": 0,
                "HBondDonorCount": 0,
                "HBondAcceptorCount": 0,
                "RotatableBondCount": 0,
                "HeavyAtomCount": 1,
                "IsotopeAtomCount": 0,
                "AtomStereoCount": 0,
                "DefinedAtomStereoCount": 0,
                "UndefinedAtomStereoCount": 0,
                "BondStereoCount": 0,
                "DefinedBondStereoCount": 0,
                "UndefinedBondStereoCount": 0,
                "CovalentUnitCount": 1,
                "ConformerCount3D": 0,
                "Morgan_128": [
                    0,
                    0,
                    0,
                    0,
                    0,
                    0,
                    0,
                    0,
                    0,
                    0,
                    0,
                    0,
                    0,
                    0,
                    0,
                    0,
                    0,
                    0,
                    0,
                    0,
                    0,
                    0,
                    0,
                    0,
                    0,
                    0,
                    0,
                    0,
                    0,
                    0,
                    0,
                    0,
                    0,
                    0,
                    0,
                    0,
                    0,
                    0,
                    0,
                    0,
                    0,
                    1,
                    0,
                    0,
                    0,
                    0,
                    0,
                    0,
                    0,
                    0,
                    0,
                    0,
                    0,
                    0,
                    0,
                    0,
                    0,
                    0,
                    0,
                    0,
                    0,
                    0,
                    0,
                    0,
                    0,
                    0,
                    0,
                    0,
                    0,
                    0,
                    0,
                    0,
                    0,
                    0,
                    0,
                    0,
                    0,
                    0,
                    0,
                    0,
                    0,
                    0,
                    0,
                    0,
                    0,
                    0,
                    0,
                    0,
                    0,
                    0,
                    0,
                    0,
                    0,
                    0,
                    0,
                    0,
                    0,
                    0,
                    0,
                    0,
                    0,
                    0,
                    0,
                    0,
                    0,
                    0,
                    0,
                    0,
                    0,
                    0,
                    0,
                    0,
                    0,
                    0,
                    0,
                    0,
                    0,
                    0,
                    0,
                    0,
                    0,
                    0,
                    0,
                    0,
                    0,
                    0,
                    0,
                    0
                ]
            }
        }
    ],
    "LDL_ranking": 1.0,
    "UDL_ranking": 1.0,
    "LDL_category": "High Detection (Lower Sensitivity)",
    "UDL_category": "High UDL Range"
}