{
    "DOI": "10.1039/d1tc04618g",
    "sensor_type": "gas",
    "detect_target": [
        {
            "substance_name": "acetone",
            "substance_type": "small molecule",
            "substance_descriptors": {
                "CID": 180,
                "MolecularFormula": "C3H6O",
                "MolecularWeight": "58.08",
                "CanonicalSMILES": "CC(=O)C",
                "IsomericSMILES": "CC(=O)C",
                "InChI": "InChI=1S/C3H6O/c1-3(2)4/h1-2H3",
                "InChIKey": "CSCPPACGZOOCGX-UHFFFAOYSA-N",
                "IUPACName": "propan-2-one",
                "XLogP": -0.1,
                "ExactMass": "58.041864811",
                "MonoisotopicMass": "58.041864811",
                "TPSA": 17.1,
                "Complexity": 26,
                "Charge": 0,
                "HBondDonorCount": 0,
                "HBondAcceptorCount": 1,
                "RotatableBondCount": 0,
                "HeavyAtomCount": 4,
                "IsotopeAtomCount": 0,
                "AtomStereoCount": 0,
                "DefinedAtomStereoCount": 0,
                "UndefinedAtomStereoCount": 0,
                "BondStereoCount": 0,
                "DefinedBondStereoCount": 0,
                "UndefinedBondStereoCount": 0,
                "CovalentUnitCount": 1,
                "Volume3D": 52.8,
                "XStericQuadrupole3D": 1.48,
                "YStericQuadrupole3D": 1.18,
                "ZStericQuadrupole3D": 0.59,
                "FeatureAcceptorCount3D": 1,
                "FeatureDonorCount3D": 0,
                "FeatureAnionCount3D": 0,
                "FeatureCationCount3D": 0,
                "FeatureRingCount3D": 0,
                "FeatureHydrophobeCount3D": 0,
                "ConformerModelRMSD3D": 0.4,
                "EffectiveRotorCount3D": 0,
                "ConformerCount3D": 1,
                "Morgan_128": [
                    0,
                    0,
                    0,
                    0,
                    0,
                    0,
                    0,
                    0,
                    0,
                    0,
                    1,
                    0,
                    0,
                    1,
                    0,
                    0,
                    0,
                    0,
                    0,
                    0,
                    0,
                    0,
                    0,
                    0,
                    0,
                    0,
                    0,
                    0,
                    0,
                    0,
                    0,
                    0,
                    0,
                    1,
                    0,
                    0,
                    0,
                    0,
                    0,
                    1,
                    0,
                    0,
                    0,
                    0,
                    0,
                    0,
                    0,
                    0,
                    0,
                    0,
                    0,
                    0,
                    0,
                    0,
                    0,
                    0,
                    0,
                    0,
                    0,
                    0,
                    0,
                    0,
                    0,
                    0,
                    0,
                    0,
                    0,
                    0,
                    0,
                    0,
                    0,
                    0,
                    0,
                    0,
                    0,
                    0,
                    0,
                    0,
                    0,
                    0,
                    0,
                    0,
                    0,
                    0,
                    0,
                    0,
                    0,
                    0,
                    0,
                    0,
                    0,
                    0,
                    0,
                    0,
                    0,
                    0,
                    0,
                    0,
                    0,
                    0,
                    0,
                    0,
                    0,
                    0,
                    0,
                    0,
                    0,
                    0,
                    0,
                    0,
                    0,
                    0,
                    0,
                    0,
                    0,
                    0,
                    0,
                    0,
                    0,
                    0,
                    0,
                    1,
                    0,
                    0,
                    0,
                    1,
                    0,
                    0
                ]
            }
        }
    ],
    "lower_detection_limit_log_ppm": -1.161150909,
    "upper_detection_limit_log_ppm": 0.602059991,
    "probe_material": [
        {
            "substance_name": "neodymium oxide",
            "substance_type": "inorganic solid",
            "substance_descriptors": {
                "Number of Elements": 2,
                "Element Types": [
                    "O",
                    "Nd"
                ],
                "Number of Atoms in Unit Cell": 5,
                "Lattice Parameter a (\u00c5)": "3.84",
                "Lattice Parameter b (\u00c5)": "3.84",
                "Lattice Parameter c (\u00c5)": "6.01",
                "Lattice Angle alpha (degrees)": "90",
                "Lattice Angle beta (degrees)": "90",
                "Lattice Angle gamma (degrees)": "120",
                "Unit Cell Volume (\u00c5\u00b3)": 77.1681562687734,
                "Density (g/cm\u00b3)": 7.240575197487425,
                "Space Group Number": 164,
                "Band Gap (eV)": 3.8089000000000004,
                "Is Metallic (1/0)": 0,
                "Formation Energy per Atom (eV)": -3.6640550959999985,
                "Energy Above Hull (eV/atom)": 0.005659960500000949,
                "Energy per Atom (eV/atom)": -19.007649004,
                "Total Magnetization (\u03bcB)": 0.0,
                "Magnetic Ordering": "NM",
                "Bulk Modulus (GPa)": 136.52,
                "Shear Modulus (GPa)": 56.93,
                "Fermi Energy (eV)": 2.28688961,
                "Total Energy (eV)": -6.38082,
                "Crystal System": "trigonal",
                "Magpie Descriptors": {
                    "MagpieData minimum Number": 8.0,
                    "MagpieData maximum Number": 60.0,
                    "MagpieData range Number": 52.0,
                    "MagpieData mean Number": 39.2,
                    "MagpieData avg_dev Number": 24.96,
                    "MagpieData mode Number": 60.0,
                    "MagpieData std_dev Number": 36.76955262170048,
                    "MagpieData minimum MendeleevNumber": 19.0,
                    "MagpieData maximum MendeleevNumber": 87.0,
                    "MagpieData range MendeleevNumber": 68.0,
                    "MagpieData mean MendeleevNumber": 46.2,
                    "MagpieData avg_dev MendeleevNumber": 32.64,
                    "MagpieData mode MendeleevNumber": 19.0,
                    "MagpieData std_dev MendeleevNumber": 48.08326112068523,
                    "MagpieData minimum AtomicWeight": 15.9994,
                    "MagpieData maximum AtomicWeight": 144.242,
                    "MagpieData range AtomicWeight": 128.24259999999998,
                    "MagpieData mean AtomicWeight": 92.94496,
                    "MagpieData avg_dev AtomicWeight": 61.556447999999996,
                    "MagpieData mode AtomicWeight": 144.242,
                    "MagpieData std_dev AtomicWeight": 90.68121209699395,
                    "MagpieData minimum MeltingT": 54.8,
                    "MagpieData maximum MeltingT": 1294.0,
                    "MagpieData range MeltingT": 1239.2,
                    "MagpieData mean MeltingT": 798.3199999999999,
                    "MagpieData avg_dev MeltingT": 594.816,
                    "MagpieData mode MeltingT": 1294.0,
                    "MagpieData std_dev MeltingT": 876.2467232463698,
                    "MagpieData minimum Column": 3.0,
                    "MagpieData maximum Column": 16.0,
                    "MagpieData range Column": 13.0,
                    "MagpieData mean Column": 8.2,
                    "MagpieData avg_dev Column": 6.24,
                    "MagpieData mode Column": 3.0,
                    "MagpieData std_dev Column": 9.19238815542512,
                    "MagpieData minimum Row": 2.0,
                    "MagpieData maximum Row": 6.0,
                    "MagpieData range Row": 4.0,
                    "MagpieData mean Row": 4.3999999999999995,
                    "MagpieData avg_dev Row": 1.9200000000000002,
                    "MagpieData mode Row": 6.0,
                    "MagpieData std_dev Row": 2.8284271247461903,
                    "MagpieData minimum CovalentRadius": 66.0,
                    "MagpieData maximum CovalentRadius": 201.0,
                    "MagpieData range CovalentRadius": 135.0,
                    "MagpieData mean CovalentRadius": 147.0,
                    "MagpieData avg_dev CovalentRadius": 64.8,
                    "MagpieData mode CovalentRadius": 201.0,
                    "MagpieData std_dev CovalentRadius": 95.45941546018392,
                    "MagpieData minimum Electronegativity": 1.14,
                    "MagpieData maximum Electronegativity": 3.44,
                    "MagpieData range Electronegativity": 2.3,
                    "MagpieData mean Electronegativity": 2.06,
                    "MagpieData avg_dev Electronegativity": 1.104,
                    "MagpieData mode Electronegativity": 1.14,
                    "MagpieData std_dev Electronegativity": 1.6263455967290594,
                    "MagpieData minimum NsValence": 2.0,
                    "MagpieData maximum NsValence": 2.0,
                    "MagpieData range NsValence": 0.0,
                    "MagpieData mean NsValence": 2.0,
                    "MagpieData avg_dev NsValence": 0.0,
                    "MagpieData mode NsValence": 2.0,
                    "MagpieData std_dev NsValence": 0.0,
                    "MagpieData minimum NpValence": 0.0,
                    "MagpieData maximum NpValence": 4.0,
                    "MagpieData range NpValence": 4.0,
                    "MagpieData mean NpValence": 1.6,
                    "MagpieData avg_dev NpValence": 1.92,
                    "MagpieData mode NpValence": 0.0,
                    "MagpieData std_dev NpValence": 2.8284271247461903,
                    "MagpieData minimum NdValence": 0.0,
                    "MagpieData maximum NdValence": 0.0,
                    "MagpieData range NdValence": 0.0,
                    "MagpieData mean NdValence": 0.0,
                    "MagpieData avg_dev NdValence": 0.0,
                    "MagpieData mode NdValence": 0.0,
                    "MagpieData std_dev NdValence": 0.0,
                    "MagpieData minimum NfValence": 0.0,
                    "MagpieData maximum NfValence": 4.0,
                    "MagpieData range NfValence": 4.0,
                    "MagpieData mean NfValence": 2.4,
                    "MagpieData avg_dev NfValence": 1.92,
                    "MagpieData mode NfValence": 4.0,
                    "MagpieData std_dev NfValence": 2.8284271247461903,
                    "MagpieData minimum NValence": 6.0,
                    "MagpieData maximum NValence": 6.0,
                    "MagpieData range NValence": 0.0,
                    "MagpieData mean NValence": 6.0,
                    "MagpieData avg_dev NValence": 0.0,
                    "MagpieData mode NValence": 6.0,
                    "MagpieData std_dev NValence": 0.0,
                    "MagpieData minimum NsUnfilled": 0.0,
                    "MagpieData maximum NsUnfilled": 0.0,
                    "MagpieData range NsUnfilled": 0.0,
                    "MagpieData mean NsUnfilled": 0.0,
                    "MagpieData avg_dev NsUnfilled": 0.0,
                    "MagpieData mode NsUnfilled": 0.0,
                    "MagpieData std_dev NsUnfilled": 0.0,
                    "MagpieData minimum NpUnfilled": 0.0,
                    "MagpieData maximum NpUnfilled": 2.0,
                    "MagpieData range NpUnfilled": 2.0,
                    "MagpieData mean NpUnfilled": 0.8,
                    "MagpieData avg_dev NpUnfilled": 0.96,
                    "MagpieData mode NpUnfilled": 0.0,
                    "MagpieData std_dev NpUnfilled": 1.4142135623730951,
                    "MagpieData minimum NdUnfilled": 0.0,
                    "MagpieData maximum NdUnfilled": 0.0,
                    "MagpieData range NdUnfilled": 0.0,
                    "MagpieData mean NdUnfilled": 0.0,
                    "MagpieData avg_dev NdUnfilled": 0.0,
                    "MagpieData mode NdUnfilled": 0.0,
                    "MagpieData std_dev NdUnfilled": 0.0,
                    "MagpieData minimum NfUnfilled": 0.0,
                    "MagpieData maximum NfUnfilled": 10.0,
                    "MagpieData range NfUnfilled": 10.0,
                    "MagpieData mean NfUnfilled": 6.0,
                    "MagpieData avg_dev NfUnfilled": 4.800000000000001,
                    "MagpieData mode NfUnfilled": 10.0,
                    "MagpieData std_dev NfUnfilled": 7.0710678118654755,
                    "MagpieData minimum NUnfilled": 2.0,
                    "MagpieData maximum NUnfilled": 10.0,
                    "MagpieData range NUnfilled": 8.0,
                    "MagpieData mean NUnfilled": 6.8,
                    "MagpieData avg_dev NUnfilled": 3.84,
                    "MagpieData mode NUnfilled": 10.0,
                    "MagpieData std_dev NUnfilled": 5.656854249492381,
                    "MagpieData minimum GSvolume_pa": 9.105,
                    "MagpieData maximum GSvolume_pa": 34.81,
                    "MagpieData range GSvolume_pa": 25.705000000000002,
                    "MagpieData mean GSvolume_pa": 24.528,
                    "MagpieData avg_dev GSvolume_pa": 12.338400000000002,
                    "MagpieData mode GSvolume_pa": 34.81,
                    "MagpieData std_dev GSvolume_pa": 18.176179810400207,
                    "MagpieData minimum GSbandgap": 0.0,
                    "MagpieData maximum GSbandgap": 0.0,
                    "MagpieData range GSbandgap": 0.0,
                    "MagpieData mean GSbandgap": 0.0,
                    "MagpieData avg_dev GSbandgap": 0.0,
                    "MagpieData mode GSbandgap": 0.0,
                    "MagpieData std_dev GSbandgap": 0.0,
                    "MagpieData minimum GSmagmom": 0.0,
                    "MagpieData maximum GSmagmom": 0.0,
                    "MagpieData range GSmagmom": 0.0,
                    "MagpieData mean GSmagmom": 0.0,
                    "MagpieData avg_dev GSmagmom": 0.0,
                    "MagpieData mode GSmagmom": 0.0,
                    "MagpieData std_dev GSmagmom": 0.0,
                    "MagpieData minimum SpaceGroupNumber": 12.0,
                    "MagpieData maximum SpaceGroupNumber": 194.0,
                    "MagpieData range SpaceGroupNumber": 182.0,
                    "MagpieData mean SpaceGroupNumber": 121.19999999999999,
                    "MagpieData avg_dev SpaceGroupNumber": 87.36000000000001,
                    "MagpieData mode SpaceGroupNumber": 194.0,
                    "MagpieData std_dev SpaceGroupNumber": 128.69343417595164
                }
            }
        },
        {
            "substance_name": "indium oxide",
            "substance_type": "inorganic solid",
            "substance_descriptors": {
                "Number of Elements": 2,
                "Element Types": [
                    "In",
                    "O"
                ],
                "Number of Atoms in Unit Cell": 40,
                "Lattice Parameter a (\u00c5)": "10.117",
                "Lattice Parameter b (\u00c5)": "10.117",
                "Lattice Parameter c (\u00c5)": "10.117",
                "Lattice Angle alpha (degrees)": "90",
                "Lattice Angle beta (degrees)": "90",
                "Lattice Angle gamma (degrees)": "90",
                "Unit Cell Volume (\u00c5\u00b3)": 526.9797159082179,
                "Density (g/cm\u00b3)": 6.998712419580598,
                "Space Group Number": 167,
                "Band Gap (eV)": 0.9288999999999996,
                "Is Metallic (1/0)": 0,
                "Formation Energy per Atom (eV)": -1.8634906622499983,
                "Energy Above Hull (eV/atom)": 0.0,
                "Energy per Atom (eV/atom)": -14.47131712925,
                "Total Magnetization (\u03bcB)": 0.0,
                "Magnetic Ordering": "NM",
                "Bulk Modulus (GPa)": 144.766,
                "Shear Modulus (GPa)": 57.394,
                "Fermi Energy (eV)": 5.00893391,
                "Total Energy (eV)": -3.36604,
                "Crystal System": "trigonal",
                "Magpie Descriptors": {
                    "MagpieData minimum Number": 8.0,
                    "MagpieData maximum Number": 49.0,
                    "MagpieData range Number": 41.0,
                    "MagpieData mean Number": 24.400000000000002,
                    "MagpieData avg_dev Number": 19.68,
                    "MagpieData mode Number": 8.0,
                    "MagpieData std_dev Number": 28.99137802864845,
                    "MagpieData minimum MendeleevNumber": 75.0,
                    "MagpieData maximum MendeleevNumber": 87.0,
                    "MagpieData range MendeleevNumber": 12.0,
                    "MagpieData mean MendeleevNumber": 82.19999999999999,
                    "MagpieData avg_dev MendeleevNumber": 5.760000000000002,
                    "MagpieData mode MendeleevNumber": 87.0,
                    "MagpieData std_dev MendeleevNumber": 8.485281374238571,
                    "MagpieData minimum AtomicWeight": 15.9994,
                    "MagpieData maximum AtomicWeight": 114.818,
                    "MagpieData range AtomicWeight": 98.8186,
                    "MagpieData mean AtomicWeight": 55.52684,
                    "MagpieData avg_dev AtomicWeight": 47.432928000000004,
                    "MagpieData mode AtomicWeight": 15.9994,
                    "MagpieData std_dev AtomicWeight": 69.87530216736097,
                    "MagpieData minimum MeltingT": 54.8,
                    "MagpieData maximum MeltingT": 429.75,
                    "MagpieData range MeltingT": 374.95,
                    "MagpieData mean MeltingT": 204.78,
                    "MagpieData avg_dev MeltingT": 179.976,
                    "MagpieData mode MeltingT": 54.8,
                    "MagpieData std_dev MeltingT": 265.129687605896,
                    "MagpieData minimum Column": 13.0,
                    "MagpieData maximum Column": 16.0,
                    "MagpieData range Column": 3.0,
                    "MagpieData mean Column": 14.8,
                    "MagpieData avg_dev Column": 1.44,
                    "MagpieData mode Column": 16.0,
                    "MagpieData std_dev Column": 2.121320343559643,
                    "MagpieData minimum Row": 2.0,
                    "MagpieData maximum Row": 5.0,
                    "MagpieData range Row": 3.0,
                    "MagpieData mean Row": 3.2,
                    "MagpieData avg_dev Row": 1.44,
                    "MagpieData mode Row": 2.0,
                    "MagpieData std_dev Row": 2.121320343559643,
                    "MagpieData minimum CovalentRadius": 66.0,
                    "MagpieData maximum CovalentRadius": 142.0,
                    "MagpieData range CovalentRadius": 76.0,
                    "MagpieData mean CovalentRadius": 96.4,
                    "MagpieData avg_dev CovalentRadius": 36.480000000000004,
                    "MagpieData mode CovalentRadius": 66.0,
                    "MagpieData std_dev CovalentRadius": 53.74011537017762,
                    "MagpieData minimum Electronegativity": 1.78,
                    "MagpieData maximum Electronegativity": 3.44,
                    "MagpieData range Electronegativity": 1.66,
                    "MagpieData mean Electronegativity": 2.7760000000000002,
                    "MagpieData avg_dev Electronegativity": 0.7968,
                    "MagpieData mode Electronegativity": 3.44,
                    "MagpieData std_dev Electronegativity": 1.1737972567696688,
                    "MagpieData minimum NsValence": 2.0,
                    "MagpieData maximum NsValence": 2.0,
                    "MagpieData range NsValence": 0.0,
                    "MagpieData mean NsValence": 2.0,
                    "MagpieData avg_dev NsValence": 0.0,
                    "MagpieData mode NsValence": 2.0,
                    "MagpieData std_dev NsValence": 0.0,
                    "MagpieData minimum NpValence": 1.0,
                    "MagpieData maximum NpValence": 4.0,
                    "MagpieData range NpValence": 3.0,
                    "MagpieData mean NpValence": 2.8,
                    "MagpieData avg_dev NpValence": 1.44,
                    "MagpieData mode NpValence": 4.0,
                    "MagpieData std_dev NpValence": 2.121320343559643,
                    "MagpieData minimum NdValence": 0.0,
                    "MagpieData maximum NdValence": 10.0,
                    "MagpieData range NdValence": 10.0,
                    "MagpieData mean NdValence": 4.0,
                    "MagpieData avg_dev NdValence": 4.800000000000001,
                    "MagpieData mode NdValence": 0.0,
                    "MagpieData std_dev NdValence": 7.0710678118654755,
                    "MagpieData minimum NfValence": 0.0,
                    "MagpieData maximum NfValence": 0.0,
                    "MagpieData range NfValence": 0.0,
                    "MagpieData mean NfValence": 0.0,
                    "MagpieData avg_dev NfValence": 0.0,
                    "MagpieData mode NfValence": 0.0,
                    "MagpieData std_dev NfValence": 0.0,
                    "MagpieData minimum NValence": 6.0,
                    "MagpieData maximum NValence": 13.0,
                    "MagpieData range NValence": 7.0,
                    "MagpieData mean NValence": 8.8,
                    "MagpieData avg_dev NValence": 3.3600000000000003,
                    "MagpieData mode NValence": 6.0,
                    "MagpieData std_dev NValence": 4.949747468305833,
                    "MagpieData minimum NsUnfilled": 0.0,
                    "MagpieData maximum NsUnfilled": 0.0,
                    "MagpieData range NsUnfilled": 0.0,
                    "MagpieData mean NsUnfilled": 0.0,
                    "MagpieData avg_dev NsUnfilled": 0.0,
                    "MagpieData mode NsUnfilled": 0.0,
                    "MagpieData std_dev NsUnfilled": 0.0,
                    "MagpieData minimum NpUnfilled": 2.0,
                    "MagpieData maximum NpUnfilled": 5.0,
                    "MagpieData range NpUnfilled": 3.0,
                    "MagpieData mean NpUnfilled": 3.2,
                    "MagpieData avg_dev NpUnfilled": 1.44,
                    "MagpieData mode NpUnfilled": 2.0,
                    "MagpieData std_dev NpUnfilled": 2.121320343559643,
                    "MagpieData minimum NdUnfilled": 0.0,
                    "MagpieData maximum NdUnfilled": 0.0,
                    "MagpieData range NdUnfilled": 0.0,
                    "MagpieData mean NdUnfilled": 0.0,
                    "MagpieData avg_dev NdUnfilled": 0.0,
                    "MagpieData mode NdUnfilled": 0.0,
                    "MagpieData std_dev NdUnfilled": 0.0,
                    "MagpieData minimum NfUnfilled": 0.0,
                    "MagpieData maximum NfUnfilled": 0.0,
                    "MagpieData range NfUnfilled": 0.0,
                    "MagpieData mean NfUnfilled": 0.0,
                    "MagpieData avg_dev NfUnfilled": 0.0,
                    "MagpieData mode NfUnfilled": 0.0,
                    "MagpieData std_dev NfUnfilled": 0.0,
                    "MagpieData minimum NUnfilled": 2.0,
                    "MagpieData maximum NUnfilled": 5.0,
                    "MagpieData range NUnfilled": 3.0,
                    "MagpieData mean NUnfilled": 3.2,
                    "MagpieData avg_dev NUnfilled": 1.44,
                    "MagpieData mode NUnfilled": 2.0,
                    "MagpieData std_dev NUnfilled": 2.121320343559643,
                    "MagpieData minimum GSvolume_pa": 9.105,
                    "MagpieData maximum GSvolume_pa": 24.26,
                    "MagpieData range GSvolume_pa": 15.155000000000001,
                    "MagpieData mean GSvolume_pa": 15.167000000000002,
                    "MagpieData avg_dev GSvolume_pa": 7.2744,
                    "MagpieData mode GSvolume_pa": 9.105,
                    "MagpieData std_dev GSvolume_pa": 10.71620326888213,
                    "MagpieData minimum GSbandgap": 0.0,
                    "MagpieData maximum GSbandgap": 0.0,
                    "MagpieData range GSbandgap": 0.0,
                    "MagpieData mean GSbandgap": 0.0,
                    "MagpieData avg_dev GSbandgap": 0.0,
                    "MagpieData mode GSbandgap": 0.0,
                    "MagpieData std_dev GSbandgap": 0.0,
                    "MagpieData minimum GSmagmom": 0.0,
                    "MagpieData maximum GSmagmom": 0.0,
                    "MagpieData range GSmagmom": 0.0,
                    "MagpieData mean GSmagmom": 0.0,
                    "MagpieData avg_dev GSmagmom": 0.0,
                    "MagpieData mode GSmagmom": 0.0,
                    "MagpieData std_dev GSmagmom": 0.0,
                    "MagpieData minimum SpaceGroupNumber": 12.0,
                    "MagpieData maximum SpaceGroupNumber": 139.0,
                    "MagpieData range SpaceGroupNumber": 127.0,
                    "MagpieData mean SpaceGroupNumber": 62.8,
                    "MagpieData avg_dev SpaceGroupNumber": 60.96,
                    "MagpieData mode SpaceGroupNumber": 12.0,
                    "MagpieData std_dev SpaceGroupNumber": 89.80256121069154
                }
            }
        }
    ],
    "test_operating_temperature_celsius": 19.0,
    "min_pH_when_testing": -1.0,
    "max_pH_when_testing": -1.0,
    "test_medium_electrolyte": [
        {
            "substance_name": "oxygen",
            "substance_type": "small molecule",
            "substance_descriptors": {
                "CID": 977,
                "MolecularFormula": "O2",
                "MolecularWeight": "31.999",
                "CanonicalSMILES": "O=O",
                "IsomericSMILES": "O=O",
                "InChI": "InChI=1S/O2/c1-2",
                "InChIKey": "MYMOFIZGZYHOMD-UHFFFAOYSA-N",
                "IUPACName": "molecular oxygen",
                "XLogP": -1.1,
                "ExactMass": "31.989829239",
                "MonoisotopicMass": "31.989829239",
                "TPSA": 34.1,
                "Complexity": 0,
                "Charge": 0,
                "HBondDonorCount": 0,
                "HBondAcceptorCount": 2,
                "RotatableBondCount": 0,
                "HeavyAtomCount": 2,
                "IsotopeAtomCount": 0,
                "AtomStereoCount": 0,
                "DefinedAtomStereoCount": 0,
                "UndefinedAtomStereoCount": 0,
                "BondStereoCount": 0,
                "DefinedBondStereoCount": 0,
                "UndefinedBondStereoCount": 0,
                "CovalentUnitCount": 1,
                "Volume3D": 22.9,
                "XStericQuadrupole3D": 0.87,
                "YStericQuadrupole3D": 0.49,
                "ZStericQuadrupole3D": 0.49,
                "FeatureAcceptorCount3D": 0,
                "FeatureDonorCount3D": 0,
                "FeatureAnionCount3D": 0,
                "FeatureCationCount3D": 0,
                "FeatureRingCount3D": 0,
                "FeatureHydrophobeCount3D": 0,
                "ConformerModelRMSD3D": 0.4,
                "EffectiveRotorCount3D": 0,
                "ConformerCount3D": 1,
                "Morgan_128": [
                    0,
                    0,
                    0,
                    0,
                    0,
                    0,
                    0,
                    0,
                    0,
                    0,
                    1,
                    0,
                    0,
                    0,
                    0,
                    0,
                    1,
                    0,
                    0,
                    0,
                    0,
                    0,
                    0,
                    0,
                    0,
                    0,
                    0,
                    0,
                    0,
                    0,
                    0,
                    0,
                    0,
                    0,
                    0,
                    0,
                    0,
                    0,
                    0,
                    0,
                    0,
                    0,
                    0,
                    0,
                    0,
                    0,
                    0,
                    0,
                    0,
                    0,
                    0,
                    0,
                    0,
                    0,
                    0,
                    0,
                    0,
                    0,
                    0,
                    0,
                    0,
                    0,
                    0,
                    0,
                    0,
                    0,
                    0,
                    0,
                    0,
                    0,
                    0,
                    0,
                    0,
                    0,
                    0,
                    0,
                    0,
                    0,
                    0,
                    0,
                    0,
                    0,
                    0,
                    0,
                    0,
                    0,
                    0,
                    0,
                    0,
                    0,
                    0,
                    0,
                    0,
                    0,
                    0,
                    0,
                    0,
                    0,
                    0,
                    0,
                    0,
                    0,
                    0,
                    0,
                    0,
                    0,
                    0,
                    0,
                    0,
                    0,
                    0,
                    0,
                    0,
                    0,
                    0,
                    0,
                    0,
                    0,
                    0,
                    0,
                    0,
                    0,
                    0,
                    0,
                    0,
                    0,
                    0,
                    0
                ]
            }
        },
        {
            "substance_name": "nitrogen",
            "substance_type": "small molecule",
            "substance_descriptors": {
                "CID": 947,
                "MolecularFormula": "N2",
                "MolecularWeight": "28.014",
                "CanonicalSMILES": "N#N",
                "IsomericSMILES": "N#N",
                "InChI": "InChI=1S/N2/c1-2",
                "InChIKey": "IJGRMHOSHXDMSA-UHFFFAOYSA-N",
                "IUPACName": "molecular nitrogen",
                "XLogP": 0.1,
                "ExactMass": "28.006148008",
                "MonoisotopicMass": "28.006148008",
                "TPSA": 47.6,
                "Complexity": 8,
                "Charge": 0,
                "HBondDonorCount": 0,
                "HBondAcceptorCount": 2,
                "RotatableBondCount": 0,
                "HeavyAtomCount": 2,
                "IsotopeAtomCount": 0,
                "AtomStereoCount": 0,
                "DefinedAtomStereoCount": 0,
                "UndefinedAtomStereoCount": 0,
                "BondStereoCount": 0,
                "DefinedBondStereoCount": 0,
                "UndefinedBondStereoCount": 0,
                "CovalentUnitCount": 1,
                "Volume3D": 23.1,
                "XStericQuadrupole3D": 0.82,
                "YStericQuadrupole3D": 0.51,
                "ZStericQuadrupole3D": 0.51,
                "FeatureAcceptorCount3D": 0,
                "FeatureDonorCount3D": 0,
                "FeatureAnionCount3D": 0,
                "FeatureCationCount3D": 0,
                "FeatureRingCount3D": 0,
                "FeatureHydrophobeCount3D": 0,
                "ConformerModelRMSD3D": 0.4,
                "EffectiveRotorCount3D": 0,
                "ConformerCount3D": 1,
                "Morgan_128": [
                    0,
                    0,
                    0,
                    0,
                    0,
                    0,
                    0,
                    0,
                    0,
                    0,
                    0,
                    0,
                    0,
                    0,
                    0,
                    0,
                    0,
                    0,
                    0,
                    0,
                    0,
                    0,
                    0,
                    0,
                    0,
                    0,
                    0,
                    0,
                    0,
                    0,
                    0,
                    0,
                    0,
                    0,
                    0,
                    0,
                    0,
                    0,
                    0,
                    0,
                    0,
                    0,
                    0,
                    0,
                    0,
                    0,
                    0,
                    0,
                    0,
                    0,
                    0,
                    0,
                    0,
                    0,
                    0,
                    0,
                    0,
                    0,
                    0,
                    0,
                    0,
                    0,
                    0,
                    0,
                    0,
                    0,
                    0,
                    0,
                    0,
                    0,
                    0,
                    0,
                    0,
                    0,
                    0,
                    0,
                    1,
                    0,
                    0,
                    0,
                    0,
                    0,
                    0,
                    0,
                    0,
                    0,
                    0,
                    0,
                    0,
                    0,
                    0,
                    0,
                    0,
                    0,
                    0,
                    0,
                    0,
                    0,
                    0,
                    0,
                    0,
                    0,
                    0,
                    0,
                    1,
                    0,
                    0,
                    0,
                    0,
                    0,
                    0,
                    0,
                    0,
                    0,
                    0,
                    0,
                    0,
                    0,
                    0,
                    0,
                    0,
                    0,
                    0,
                    0,
                    0,
                    0,
                    0,
                    0
                ]
            }
        }
    ],
    "LDL_ranking": 1.0,
    "UDL_ranking": 1.0,
    "LDL_category": "Moderate Detection",
    "UDL_category": "Low UDL Range"
}