{
    "DOI": "10.1016/j.snb.2019.04.032",
    "sensor_type": "liquid",
    "detect_target": [
        {
            "substance_name": "potassium",
            "substance_type": "inorganic solid",
            "substance_descriptors": {
                "Number of Elements": 1,
                "Element Types": [
                    "K"
                ],
                "Number of Atoms in Unit Cell": 1,
                "Lattice Parameter a (\u00c5)": "5.225",
                "Lattice Parameter b (\u00c5)": "5.225",
                "Lattice Parameter c (\u00c5)": "5.225",
                "Lattice Angle alpha (degrees)": "90",
                "Lattice Angle beta (degrees)": "90",
                "Lattice Angle gamma (degrees)": "90",
                "Unit Cell Volume (\u00c5\u00b3)": 78.51861211537867,
                "Density (g/cm\u00b3)": 0.8268645208889358,
                "Space Group Number": 229,
                "Is Metallic (1/0)": 1,
                "Band Gap (eV)": 0.0,
                "Formation Energy per Atom (eV)": 0.015213726250000725,
                "Energy Above Hull (eV/atom)": 0.015213726250000725,
                "Energy per Atom (eV/atom)": -6.00305021,
                "Total Magnetization (\u03bcB)": 2.58e-05,
                "Magnetic Ordering": "NM",
                "Bulk Modulus (GPa)": 33305.958,
                "Shear Modulus (GPa)": 19980.015,
                "Fermi Energy (eV)": 0.42374303,
                "Total Energy (eV)": 1.23258,
                "Crystal System": "cubic",
                "Magpie Descriptors": {
                    "MagpieData minimum Number": 19.0,
                    "MagpieData maximum Number": 19.0,
                    "MagpieData range Number": 0.0,
                    "MagpieData mean Number": 19.0,
                    "MagpieData avg_dev Number": 0.0,
                    "MagpieData mode Number": 19.0,
                    "MagpieData std_dev Number": 0,
                    "MagpieData minimum MendeleevNumber": 3.0,
                    "MagpieData maximum MendeleevNumber": 3.0,
                    "MagpieData range MendeleevNumber": 0.0,
                    "MagpieData mean MendeleevNumber": 3.0,
                    "MagpieData avg_dev MendeleevNumber": 0.0,
                    "MagpieData mode MendeleevNumber": 3.0,
                    "MagpieData std_dev MendeleevNumber": 0,
                    "MagpieData minimum AtomicWeight": 39.0983,
                    "MagpieData maximum AtomicWeight": 39.0983,
                    "MagpieData range AtomicWeight": 0.0,
                    "MagpieData mean AtomicWeight": 39.0983,
                    "MagpieData avg_dev AtomicWeight": 0.0,
                    "MagpieData mode AtomicWeight": 39.0983,
                    "MagpieData std_dev AtomicWeight": 0,
                    "MagpieData minimum MeltingT": 336.53,
                    "MagpieData maximum MeltingT": 336.53,
                    "MagpieData range MeltingT": 0.0,
                    "MagpieData mean MeltingT": 336.53,
                    "MagpieData avg_dev MeltingT": 0.0,
                    "MagpieData mode MeltingT": 336.53,
                    "MagpieData std_dev MeltingT": 0,
                    "MagpieData minimum Column": 1.0,
                    "MagpieData maximum Column": 1.0,
                    "MagpieData range Column": 0.0,
                    "MagpieData mean Column": 1.0,
                    "MagpieData avg_dev Column": 0.0,
                    "MagpieData mode Column": 1.0,
                    "MagpieData std_dev Column": 0,
                    "MagpieData minimum Row": 4.0,
                    "MagpieData maximum Row": 4.0,
                    "MagpieData range Row": 0.0,
                    "MagpieData mean Row": 4.0,
                    "MagpieData avg_dev Row": 0.0,
                    "MagpieData mode Row": 4.0,
                    "MagpieData std_dev Row": 0,
                    "MagpieData minimum CovalentRadius": 203.0,
                    "MagpieData maximum CovalentRadius": 203.0,
                    "MagpieData range CovalentRadius": 0.0,
                    "MagpieData mean CovalentRadius": 203.0,
                    "MagpieData avg_dev CovalentRadius": 0.0,
                    "MagpieData mode CovalentRadius": 203.0,
                    "MagpieData std_dev CovalentRadius": 0,
                    "MagpieData minimum Electronegativity": 0.82,
                    "MagpieData maximum Electronegativity": 0.82,
                    "MagpieData range Electronegativity": 0.0,
                    "MagpieData mean Electronegativity": 0.82,
                    "MagpieData avg_dev Electronegativity": 0.0,
                    "MagpieData mode Electronegativity": 0.82,
                    "MagpieData std_dev Electronegativity": 0,
                    "MagpieData minimum NsValence": 1.0,
                    "MagpieData maximum NsValence": 1.0,
                    "MagpieData range NsValence": 0.0,
                    "MagpieData mean NsValence": 1.0,
                    "MagpieData avg_dev NsValence": 0.0,
                    "MagpieData mode NsValence": 1.0,
                    "MagpieData std_dev NsValence": 0,
                    "MagpieData minimum NpValence": 0.0,
                    "MagpieData maximum NpValence": 0.0,
                    "MagpieData range NpValence": 0.0,
                    "MagpieData mean NpValence": 0.0,
                    "MagpieData avg_dev NpValence": 0.0,
                    "MagpieData mode NpValence": 0.0,
                    "MagpieData std_dev NpValence": 0,
                    "MagpieData minimum NdValence": 0.0,
                    "MagpieData maximum NdValence": 0.0,
                    "MagpieData range NdValence": 0.0,
                    "MagpieData mean NdValence": 0.0,
                    "MagpieData avg_dev NdValence": 0.0,
                    "MagpieData mode NdValence": 0.0,
                    "MagpieData std_dev NdValence": 0,
                    "MagpieData minimum NfValence": 0.0,
                    "MagpieData maximum NfValence": 0.0,
                    "MagpieData range NfValence": 0.0,
                    "MagpieData mean NfValence": 0.0,
                    "MagpieData avg_dev NfValence": 0.0,
                    "MagpieData mode NfValence": 0.0,
                    "MagpieData std_dev NfValence": 0,
                    "MagpieData minimum NValence": 1.0,
                    "MagpieData maximum NValence": 1.0,
                    "MagpieData range NValence": 0.0,
                    "MagpieData mean NValence": 1.0,
                    "MagpieData avg_dev NValence": 0.0,
                    "MagpieData mode NValence": 1.0,
                    "MagpieData std_dev NValence": 0,
                    "MagpieData minimum NsUnfilled": 1.0,
                    "MagpieData maximum NsUnfilled": 1.0,
                    "MagpieData range NsUnfilled": 0.0,
                    "MagpieData mean NsUnfilled": 1.0,
                    "MagpieData avg_dev NsUnfilled": 0.0,
                    "MagpieData mode NsUnfilled": 1.0,
                    "MagpieData std_dev NsUnfilled": 0,
                    "MagpieData minimum NpUnfilled": 0.0,
                    "MagpieData maximum NpUnfilled": 0.0,
                    "MagpieData range NpUnfilled": 0.0,
                    "MagpieData mean NpUnfilled": 0.0,
                    "MagpieData avg_dev NpUnfilled": 0.0,
                    "MagpieData mode NpUnfilled": 0.0,
                    "MagpieData std_dev NpUnfilled": 0,
                    "MagpieData minimum NdUnfilled": 0.0,
                    "MagpieData maximum NdUnfilled": 0.0,
                    "MagpieData range NdUnfilled": 0.0,
                    "MagpieData mean NdUnfilled": 0.0,
                    "MagpieData avg_dev NdUnfilled": 0.0,
                    "MagpieData mode NdUnfilled": 0.0,
                    "MagpieData std_dev NdUnfilled": 0,
                    "MagpieData minimum NfUnfilled": 0.0,
                    "MagpieData maximum NfUnfilled": 0.0,
                    "MagpieData range NfUnfilled": 0.0,
                    "MagpieData mean NfUnfilled": 0.0,
                    "MagpieData avg_dev NfUnfilled": 0.0,
                    "MagpieData mode NfUnfilled": 0.0,
                    "MagpieData std_dev NfUnfilled": 0,
                    "MagpieData minimum NUnfilled": 1.0,
                    "MagpieData maximum NUnfilled": 1.0,
                    "MagpieData range NUnfilled": 0.0,
                    "MagpieData mean NUnfilled": 1.0,
                    "MagpieData avg_dev NUnfilled": 0.0,
                    "MagpieData mode NUnfilled": 1.0,
                    "MagpieData std_dev NUnfilled": 0,
                    "MagpieData minimum GSvolume_pa": 73.1066666667,
                    "MagpieData maximum GSvolume_pa": 73.1066666667,
                    "MagpieData range GSvolume_pa": 0.0,
                    "MagpieData mean GSvolume_pa": 73.1066666667,
                    "MagpieData avg_dev GSvolume_pa": 0.0,
                    "MagpieData mode GSvolume_pa": 73.1066666667,
                    "MagpieData std_dev GSvolume_pa": 0,
                    "MagpieData minimum GSbandgap": 0.0,
                    "MagpieData maximum GSbandgap": 0.0,
                    "MagpieData range GSbandgap": 0.0,
                    "MagpieData mean GSbandgap": 0.0,
                    "MagpieData avg_dev GSbandgap": 0.0,
                    "MagpieData mode GSbandgap": 0.0,
                    "MagpieData std_dev GSbandgap": 0,
                    "MagpieData minimum GSmagmom": 0.0,
                    "MagpieData maximum GSmagmom": 0.0,
                    "MagpieData range GSmagmom": 0.0,
                    "MagpieData mean GSmagmom": 0.0,
                    "MagpieData avg_dev GSmagmom": 0.0,
                    "MagpieData mode GSmagmom": 0.0,
                    "MagpieData std_dev GSmagmom": 0,
                    "MagpieData minimum SpaceGroupNumber": 229.0,
                    "MagpieData maximum SpaceGroupNumber": 229.0,
                    "MagpieData range SpaceGroupNumber": 0.0,
                    "MagpieData mean SpaceGroupNumber": 229.0,
                    "MagpieData avg_dev SpaceGroupNumber": 0.0,
                    "MagpieData mode SpaceGroupNumber": 229.0,
                    "MagpieData std_dev SpaceGroupNumber": 0
                }
            }
        }
    ],
    "lower_detection_limit_log_ppm": -4.408935393,
    "upper_detection_limit_log_ppm": 2.592176757,
    "probe_material": [
        {
            "substance_name": "potassium ionophore iii",
            "substance_type": "small molecule",
            "substance_descriptors": {
                "CID": 5167704,
                "MolecularFormula": "C46H70N4O18",
                "MolecularWeight": "967.1",
                "CanonicalSMILES": "CCCCCCCCCCCCC(C)(COC(=O)NC1=CC2=C(C=C1[N+](=O)[O-])OCCOCCOCCOCCO2)COC(=O)NC3=CC4=C(C=C3[N+](=O)[O-])OCCOCCOCCOCCO4",
                "IsomericSMILES": "CCCCCCCCCCCCC(C)(COC(=O)NC1=CC2=C(C=C1[N+](=O)[O-])OCCOCCOCCOCCO2)COC(=O)NC3=CC4=C(C=C3[N+](=O)[O-])OCCOCCOCCOCCO4",
                "InChI": "InChI=1S/C46H70N4O18/c1-3-4-5-6-7-8-9-10-11-12-13-46(2,34-67-44(51)47-36-30-40-42(32-38(36)49(53)54)65-28-24-61-20-16-57-14-18-59-22-26-63-40)35-68-45(52)48-37-31-41-43(33-39(37)50(55)56)66-29-25-62-21-17-58-15-19-60-23-27-64-41/h30-33H,3-29,34-35H2,1-2H3,(H,47,51)(H,48,52)",
                "InChIKey": "ATWXVVNLVXXTQN-UHFFFAOYSA-N",
                "IUPACName": "[2-methyl-2-[(18-nitro-2,5,8,11,14-pentaoxabicyclo[13.4.0]nonadeca-1(15),16,18-trien-17-yl)carbamoyloxymethyl]tetradecyl] N-(18-nitro-2,5,8,11,14-pentaoxabicyclo[13.4.0]nonadeca-1(15),16,18-trien-17-yl)carbamate",
                "XLogP": 9,
                "ExactMass": "966.46851140",
                "MonoisotopicMass": "966.46851140",
                "TPSA": 261,
                "Complexity": 1310,
                "Charge": 0,
                "HBondDonorCount": 2,
                "HBondAcceptorCount": 18,
                "RotatableBondCount": 19,
                "HeavyAtomCount": 68,
                "IsotopeAtomCount": 0,
                "AtomStereoCount": 0,
                "DefinedAtomStereoCount": 0,
                "UndefinedAtomStereoCount": 0,
                "BondStereoCount": 0,
                "DefinedBondStereoCount": 0,
                "UndefinedBondStereoCount": 0,
                "CovalentUnitCount": 1,
                "ConformerCount3D": 0,
                "Morgan_128": [
                    1,
                    0,
                    0,
                    0,
                    0,
                    0,
                    0,
                    0,
                    1,
                    0,
                    1,
                    1,
                    0,
                    1,
                    0,
                    0,
                    1,
                    0,
                    0,
                    1,
                    1,
                    0,
                    0,
                    0,
                    1,
                    0,
                    1,
                    0,
                    1,
                    0,
                    1,
                    0,
                    0,
                    1,
                    1,
                    0,
                    1,
                    0,
                    1,
                    1,
                    0,
                    0,
                    0,
                    1,
                    0,
                    0,
                    1,
                    0,
                    0,
                    0,
                    0,
                    0,
                    0,
                    0,
                    1,
                    1,
                    0,
                    1,
                    0,
                    0,
                    0,
                    0,
                    0,
                    0,
                    0,
                    0,
                    0,
                    0,
                    1,
                    0,
                    1,
                    0,
                    1,
                    0,
                    0,
                    1,
                    1,
                    0,
                    0,
                    1,
                    1,
                    1,
                    0,
                    0,
                    0,
                    0,
                    0,
                    0,
                    0,
                    0,
                    0,
                    0,
                    1,
                    0,
                    1,
                    0,
                    1,
                    0,
                    1,
                    0,
                    1,
                    0,
                    0,
                    1,
                    0,
                    0,
                    0,
                    1,
                    0,
                    0,
                    0,
                    1,
                    0,
                    1,
                    1,
                    0,
                    0,
                    1,
                    0,
                    1,
                    0,
                    1,
                    0,
                    0,
                    0,
                    1,
                    0,
                    0
                ]
            }
        }
    ],
    "test_operating_temperature_celsius": 27.5,
    "min_pH_when_testing": 6.5,
    "max_pH_when_testing": 6.5,
    "test_medium_electrolyte": [
        {
            "substance_name": "water",
            "substance_type": "small molecule",
            "substance_descriptors": {
                "CID": 962,
                "MolecularFormula": "H2O",
                "MolecularWeight": "18.015",
                "CanonicalSMILES": "O",
                "IsomericSMILES": "O",
                "InChI": "InChI=1S/H2O/h1H2",
                "InChIKey": "XLYOFNOQVPJJNP-UHFFFAOYSA-N",
                "IUPACName": "oxidane",
                "XLogP": -0.5,
                "ExactMass": "18.010564683",
                "MonoisotopicMass": "18.010564683",
                "TPSA": 1,
                "Complexity": 0,
                "Charge": 0,
                "HBondDonorCount": 1,
                "HBondAcceptorCount": 1,
                "RotatableBondCount": 0,
                "HeavyAtomCount": 1,
                "IsotopeAtomCount": 0,
                "AtomStereoCount": 0,
                "DefinedAtomStereoCount": 0,
                "UndefinedAtomStereoCount": 0,
                "BondStereoCount": 0,
                "DefinedBondStereoCount": 0,
                "UndefinedBondStereoCount": 0,
                "CovalentUnitCount": 1,
                "Volume3D": 14.7,
                "XStericQuadrupole3D": 0.49,
                "YStericQuadrupole3D": 0.49,
                "ZStericQuadrupole3D": 0.49,
                "FeatureAcceptorCount3D": 1,
                "FeatureDonorCount3D": 1,
                "FeatureAnionCount3D": 0,
                "FeatureCationCount3D": 0,
                "FeatureRingCount3D": 0,
                "FeatureHydrophobeCount3D": 0,
                "ConformerModelRMSD3D": 0.4,
                "EffectiveRotorCount3D": 0,
                "ConformerCount3D": 1,
                "Morgan_128": [
                    0,
                    0,
                    0,
                    0,
                    0,
                    0,
                    0,
                    0,
                    0,
                    0,
                    0,
                    0,
                    0,
                    0,
                    0,
                    0,
                    0,
                    0,
                    0,
                    0,
                    0,
                    0,
                    1,
                    0,
                    0,
                    0,
                    0,
                    0,
                    0,
                    0,
                    0,
                    0,
                    0,
                    0,
                    0,
                    0,
                    0,
                    0,
                    0,
                    0,
                    0,
                    0,
                    0,
                    0,
                    0,
                    0,
                    0,
                    0,
                    0,
                    0,
                    0,
                    0,
                    0,
                    0,
                    0,
                    0,
                    0,
                    0,
                    0,
                    0,
                    0,
                    0,
                    0,
                    0,
                    0,
                    0,
                    0,
                    0,
                    0,
                    0,
                    0,
                    0,
                    0,
                    0,
                    0,
                    0,
                    0,
                    0,
                    0,
                    0,
                    0,
                    0,
                    0,
                    0,
                    0,
                    0,
                    0,
                    0,
                    0,
                    0,
                    0,
                    0,
                    0,
                    0,
                    0,
                    0,
                    0,
                    0,
                    0,
                    0,
                    0,
                    0,
                    0,
                    0,
                    0,
                    0,
                    0,
                    0,
                    0,
                    0,
                    0,
                    0,
                    0,
                    0,
                    0,
                    0,
                    0,
                    0,
                    0,
                    0,
                    0,
                    0,
                    0,
                    0,
                    0,
                    0,
                    0,
                    0
                ]
            }
        }
    ],
    "LDL_ranking": 1.0,
    "UDL_ranking": 1.0,
    "LDL_category": "Low Detection",
    "UDL_category": "Moderate UDL Range"
}