{
    "DOI": "10.1039/d4ta02739f",
    "sensor_type": "gas",
    "detect_target": [
        {
            "substance_name": "nitrogen dioxide",
            "substance_type": "small molecule",
            "substance_descriptors": {
                "CID": 3032552,
                "MolecularFormula": "NO2",
                "MolecularWeight": "46.006",
                "CanonicalSMILES": "N(=O)[O]",
                "IsomericSMILES": "N(=O)[O]",
                "InChI": "InChI=1S/NO2/c2-1-3",
                "InChIKey": "JCXJVPUVTGWSNB-UHFFFAOYSA-N",
                "XLogP": -0.3,
                "ExactMass": "45.992903243",
                "MonoisotopicMass": "45.992903243",
                "TPSA": 30.4,
                "Complexity": 7,
                "Charge": 0,
                "HBondDonorCount": 0,
                "HBondAcceptorCount": 2,
                "RotatableBondCount": 0,
                "HeavyAtomCount": 3,
                "IsotopeAtomCount": 0,
                "AtomStereoCount": 0,
                "DefinedAtomStereoCount": 0,
                "UndefinedAtomStereoCount": 0,
                "BondStereoCount": 0,
                "DefinedBondStereoCount": 0,
                "UndefinedBondStereoCount": 0,
                "CovalentUnitCount": 1,
                "ConformerCount3D": 0,
                "Morgan_128": [
                    0,
                    0,
                    0,
                    0,
                    0,
                    0,
                    0,
                    0,
                    0,
                    0,
                    1,
                    0,
                    1,
                    0,
                    0,
                    0,
                    0,
                    0,
                    0,
                    0,
                    0,
                    0,
                    0,
                    0,
                    0,
                    0,
                    0,
                    0,
                    0,
                    0,
                    0,
                    0,
                    0,
                    0,
                    0,
                    0,
                    0,
                    0,
                    0,
                    0,
                    0,
                    0,
                    0,
                    0,
                    0,
                    0,
                    0,
                    0,
                    0,
                    0,
                    0,
                    0,
                    1,
                    0,
                    0,
                    0,
                    0,
                    0,
                    0,
                    0,
                    0,
                    0,
                    0,
                    0,
                    0,
                    0,
                    0,
                    0,
                    0,
                    0,
                    0,
                    0,
                    0,
                    0,
                    0,
                    0,
                    0,
                    0,
                    0,
                    0,
                    0,
                    0,
                    0,
                    1,
                    0,
                    1,
                    0,
                    0,
                    0,
                    0,
                    0,
                    0,
                    0,
                    0,
                    0,
                    0,
                    0,
                    0,
                    0,
                    0,
                    0,
                    0,
                    0,
                    0,
                    0,
                    0,
                    0,
                    0,
                    0,
                    0,
                    0,
                    0,
                    0,
                    0,
                    0,
                    0,
                    0,
                    0,
                    0,
                    0,
                    0,
                    0,
                    0,
                    0,
                    0,
                    0,
                    0,
                    0
                ]
            }
        }
    ],
    "lower_detection_limit_log_ppm": -1.698970004,
    "upper_detection_limit_log_ppm": null,
    "probe_material": [
        {
            "substance_name": "tungsten ditelluride",
            "substance_type": "inorganic solid",
            "substance_descriptors": {
                "Number of Elements": 2,
                "Element Types": [
                    "Te",
                    "W"
                ],
                "Number of Atoms in Unit Cell": 12,
                "Lattice Parameter a (\u00c5)": "6.282",
                "Lattice Parameter b (\u00c5)": "3.496",
                "Lattice Parameter c (\u00c5)": "14.07",
                "Lattice Angle alpha (degrees)": "90",
                "Lattice Angle beta (degrees)": "90",
                "Lattice Angle gamma (degrees)": "90",
                "Unit Cell Volume (\u00c5\u00b3)": 332.7590647462631,
                "Density (g/cm\u00b3)": 8.763614867784016,
                "Space Group Number": 31,
                "Is Metallic (1/0)": 1,
                "Band Gap (eV)": 0.0,
                "Formation Energy per Atom (eV)": -0.11655146833333656,
                "Energy Above Hull (eV/atom)": 0.0,
                "Energy per Atom (eV/atom)": -34.183965801666666,
                "Total Magnetization (\u03bcB)": 0.0,
                "Magnetic Ordering": "NM",
                "Bulk Modulus (GPa)": 18.391,
                "Shear Modulus (GPa)": 12.518,
                "Fermi Energy (eV)": 5.92169717,
                "Total Energy (eV)": -4.19719,
                "Crystal System": "orthorhombic",
                "Magpie Descriptors": {
                    "MagpieData minimum Number": 52.0,
                    "MagpieData maximum Number": 74.0,
                    "MagpieData range Number": 22.0,
                    "MagpieData mean Number": 59.33333333333333,
                    "MagpieData avg_dev Number": 9.777777777777775,
                    "MagpieData mode Number": 52.0,
                    "MagpieData std_dev Number": 15.556349186104045,
                    "MagpieData minimum MendeleevNumber": 51.0,
                    "MagpieData maximum MendeleevNumber": 90.0,
                    "MagpieData range MendeleevNumber": 39.0,
                    "MagpieData mean MendeleevNumber": 77.0,
                    "MagpieData avg_dev MendeleevNumber": 17.333333333333332,
                    "MagpieData mode MendeleevNumber": 90.0,
                    "MagpieData std_dev MendeleevNumber": 27.577164466275352,
                    "MagpieData minimum AtomicWeight": 127.6,
                    "MagpieData maximum AtomicWeight": 183.84,
                    "MagpieData range AtomicWeight": 56.24000000000001,
                    "MagpieData mean AtomicWeight": 146.34666666666666,
                    "MagpieData avg_dev AtomicWeight": 24.99555555555556,
                    "MagpieData mode AtomicWeight": 127.6,
                    "MagpieData std_dev AtomicWeight": 39.76768537393144,
                    "MagpieData minimum MeltingT": 722.66,
                    "MagpieData maximum MeltingT": 3695.0,
                    "MagpieData range MeltingT": 2972.34,
                    "MagpieData mean MeltingT": 1713.4399999999998,
                    "MagpieData avg_dev MeltingT": 1321.04,
                    "MagpieData mode MeltingT": 722.66,
                    "MagpieData std_dev MeltingT": 2101.761769992023,
                    "MagpieData minimum Column": 6.0,
                    "MagpieData maximum Column": 16.0,
                    "MagpieData range Column": 10.0,
                    "MagpieData mean Column": 12.666666666666666,
                    "MagpieData avg_dev Column": 4.444444444444445,
                    "MagpieData mode Column": 16.0,
                    "MagpieData std_dev Column": 7.0710678118654755,
                    "MagpieData minimum Row": 5.0,
                    "MagpieData maximum Row": 6.0,
                    "MagpieData range Row": 1.0,
                    "MagpieData mean Row": 5.333333333333333,
                    "MagpieData avg_dev Row": 0.4444444444444443,
                    "MagpieData mode Row": 5.0,
                    "MagpieData std_dev Row": 0.7071067811865476,
                    "MagpieData minimum CovalentRadius": 138.0,
                    "MagpieData maximum CovalentRadius": 162.0,
                    "MagpieData range CovalentRadius": 24.0,
                    "MagpieData mean CovalentRadius": 146.0,
                    "MagpieData avg_dev CovalentRadius": 10.666666666666666,
                    "MagpieData mode CovalentRadius": 138.0,
                    "MagpieData std_dev CovalentRadius": 16.97056274847714,
                    "MagpieData minimum Electronegativity": 2.1,
                    "MagpieData maximum Electronegativity": 2.36,
                    "MagpieData range Electronegativity": 0.2599999999999998,
                    "MagpieData mean Electronegativity": 2.1866666666666665,
                    "MagpieData avg_dev Electronegativity": 0.11555555555555541,
                    "MagpieData mode Electronegativity": 2.1,
                    "MagpieData std_dev Electronegativity": 0.1838477631085022,
                    "MagpieData minimum NsValence": 2.0,
                    "MagpieData maximum NsValence": 2.0,
                    "MagpieData range NsValence": 0.0,
                    "MagpieData mean NsValence": 2.0,
                    "MagpieData avg_dev NsValence": 0.0,
                    "MagpieData mode NsValence": 2.0,
                    "MagpieData std_dev NsValence": 0.0,
                    "MagpieData minimum NpValence": 0.0,
                    "MagpieData maximum NpValence": 4.0,
                    "MagpieData range NpValence": 4.0,
                    "MagpieData mean NpValence": 2.6666666666666665,
                    "MagpieData avg_dev NpValence": 1.7777777777777777,
                    "MagpieData mode NpValence": 4.0,
                    "MagpieData std_dev NpValence": 2.8284271247461903,
                    "MagpieData minimum NdValence": 4.0,
                    "MagpieData maximum NdValence": 10.0,
                    "MagpieData range NdValence": 6.0,
                    "MagpieData mean NdValence": 7.999999999999999,
                    "MagpieData avg_dev NdValence": 2.666666666666667,
                    "MagpieData mode NdValence": 10.0,
                    "MagpieData std_dev NdValence": 4.242640687119285,
                    "MagpieData minimum NfValence": 0.0,
                    "MagpieData maximum NfValence": 14.0,
                    "MagpieData range NfValence": 14.0,
                    "MagpieData mean NfValence": 4.666666666666666,
                    "MagpieData avg_dev NfValence": 6.222222222222221,
                    "MagpieData mode NfValence": 0.0,
                    "MagpieData std_dev NfValence": 9.899494936611665,
                    "MagpieData minimum NValence": 16.0,
                    "MagpieData maximum NValence": 20.0,
                    "MagpieData range NValence": 4.0,
                    "MagpieData mean NValence": 17.333333333333332,
                    "MagpieData avg_dev NValence": 1.7777777777777772,
                    "MagpieData mode NValence": 16.0,
                    "MagpieData std_dev NValence": 2.8284271247461903,
                    "MagpieData minimum NsUnfilled": 0.0,
                    "MagpieData maximum NsUnfilled": 0.0,
                    "MagpieData range NsUnfilled": 0.0,
                    "MagpieData mean NsUnfilled": 0.0,
                    "MagpieData avg_dev NsUnfilled": 0.0,
                    "MagpieData mode NsUnfilled": 0.0,
                    "MagpieData std_dev NsUnfilled": 0.0,
                    "MagpieData minimum NpUnfilled": 0.0,
                    "MagpieData maximum NpUnfilled": 2.0,
                    "MagpieData range NpUnfilled": 2.0,
                    "MagpieData mean NpUnfilled": 1.3333333333333333,
                    "MagpieData avg_dev NpUnfilled": 0.8888888888888888,
                    "MagpieData mode NpUnfilled": 2.0,
                    "MagpieData std_dev NpUnfilled": 1.4142135623730951,
                    "MagpieData minimum NdUnfilled": 0.0,
                    "MagpieData maximum NdUnfilled": 6.0,
                    "MagpieData range NdUnfilled": 6.0,
                    "MagpieData mean NdUnfilled": 2.0,
                    "MagpieData avg_dev NdUnfilled": 2.6666666666666665,
                    "MagpieData mode NdUnfilled": 0.0,
                    "MagpieData std_dev NdUnfilled": 4.242640687119285,
                    "MagpieData minimum NfUnfilled": 0.0,
                    "MagpieData maximum NfUnfilled": 0.0,
                    "MagpieData range NfUnfilled": 0.0,
                    "MagpieData mean NfUnfilled": 0.0,
                    "MagpieData avg_dev NfUnfilled": 0.0,
                    "MagpieData mode NfUnfilled": 0.0,
                    "MagpieData std_dev NfUnfilled": 0.0,
                    "MagpieData minimum NUnfilled": 2.0,
                    "MagpieData maximum NUnfilled": 6.0,
                    "MagpieData range NUnfilled": 4.0,
                    "MagpieData mean NUnfilled": 3.333333333333333,
                    "MagpieData avg_dev NUnfilled": 1.7777777777777777,
                    "MagpieData mode NUnfilled": 2.0,
                    "MagpieData std_dev NUnfilled": 2.8284271247461903,
                    "MagpieData minimum GSvolume_pa": 16.05,
                    "MagpieData maximum GSvolume_pa": 34.7633333333,
                    "MagpieData range GSvolume_pa": 18.713333333299996,
                    "MagpieData mean GSvolume_pa": 28.52555555553333,
                    "MagpieData avg_dev GSvolume_pa": 8.31703703702222,
                    "MagpieData mode GSvolume_pa": 34.7633333333,
                    "MagpieData std_dev GSvolume_pa": 13.232324898580687,
                    "MagpieData minimum GSbandgap": 0.0,
                    "MagpieData maximum GSbandgap": 0.464,
                    "MagpieData range GSbandgap": 0.464,
                    "MagpieData mean GSbandgap": 0.30933333333333335,
                    "MagpieData avg_dev GSbandgap": 0.20622222222222222,
                    "MagpieData mode GSbandgap": 0.464,
                    "MagpieData std_dev GSbandgap": 0.32809754647055805,
                    "MagpieData minimum GSmagmom": 0.0,
                    "MagpieData maximum GSmagmom": 0.0,
                    "MagpieData range GSmagmom": 0.0,
                    "MagpieData mean GSmagmom": 0.0,
                    "MagpieData avg_dev GSmagmom": 0.0,
                    "MagpieData mode GSmagmom": 0.0,
                    "MagpieData std_dev GSmagmom": 0.0,
                    "MagpieData minimum SpaceGroupNumber": 152.0,
                    "MagpieData maximum SpaceGroupNumber": 229.0,
                    "MagpieData range SpaceGroupNumber": 77.0,
                    "MagpieData mean SpaceGroupNumber": 177.66666666666666,
                    "MagpieData avg_dev SpaceGroupNumber": 34.222222222222214,
                    "MagpieData mode SpaceGroupNumber": 152.0,
                    "MagpieData std_dev SpaceGroupNumber": 54.44722215136416
                }
            }
        }
    ],
    "test_operating_temperature_celsius": 22.5,
    "min_pH_when_testing": -1.0,
    "max_pH_when_testing": -1.0,
    "test_medium_electrolyte": [
        {
            "substance_name": "oxygen",
            "substance_type": "small molecule",
            "substance_descriptors": {
                "CID": 977,
                "MolecularFormula": "O2",
                "MolecularWeight": "31.999",
                "CanonicalSMILES": "O=O",
                "IsomericSMILES": "O=O",
                "InChI": "InChI=1S/O2/c1-2",
                "InChIKey": "MYMOFIZGZYHOMD-UHFFFAOYSA-N",
                "IUPACName": "molecular oxygen",
                "XLogP": -1.1,
                "ExactMass": "31.989829239",
                "MonoisotopicMass": "31.989829239",
                "TPSA": 34.1,
                "Complexity": 0,
                "Charge": 0,
                "HBondDonorCount": 0,
                "HBondAcceptorCount": 2,
                "RotatableBondCount": 0,
                "HeavyAtomCount": 2,
                "IsotopeAtomCount": 0,
                "AtomStereoCount": 0,
                "DefinedAtomStereoCount": 0,
                "UndefinedAtomStereoCount": 0,
                "BondStereoCount": 0,
                "DefinedBondStereoCount": 0,
                "UndefinedBondStereoCount": 0,
                "CovalentUnitCount": 1,
                "Volume3D": 22.9,
                "XStericQuadrupole3D": 0.87,
                "YStericQuadrupole3D": 0.49,
                "ZStericQuadrupole3D": 0.49,
                "FeatureAcceptorCount3D": 0,
                "FeatureDonorCount3D": 0,
                "FeatureAnionCount3D": 0,
                "FeatureCationCount3D": 0,
                "FeatureRingCount3D": 0,
                "FeatureHydrophobeCount3D": 0,
                "ConformerModelRMSD3D": 0.4,
                "EffectiveRotorCount3D": 0,
                "ConformerCount3D": 1,
                "Morgan_128": [
                    0,
                    0,
                    0,
                    0,
                    0,
                    0,
                    0,
                    0,
                    0,
                    0,
                    1,
                    0,
                    0,
                    0,
                    0,
                    0,
                    1,
                    0,
                    0,
                    0,
                    0,
                    0,
                    0,
                    0,
                    0,
                    0,
                    0,
                    0,
                    0,
                    0,
                    0,
                    0,
                    0,
                    0,
                    0,
                    0,
                    0,
                    0,
                    0,
                    0,
                    0,
                    0,
                    0,
                    0,
                    0,
                    0,
                    0,
                    0,
                    0,
                    0,
                    0,
                    0,
                    0,
                    0,
                    0,
                    0,
                    0,
                    0,
                    0,
                    0,
                    0,
                    0,
                    0,
                    0,
                    0,
                    0,
                    0,
                    0,
                    0,
                    0,
                    0,
                    0,
                    0,
                    0,
                    0,
                    0,
                    0,
                    0,
                    0,
                    0,
                    0,
                    0,
                    0,
                    0,
                    0,
                    0,
                    0,
                    0,
                    0,
                    0,
                    0,
                    0,
                    0,
                    0,
                    0,
                    0,
                    0,
                    0,
                    0,
                    0,
                    0,
                    0,
                    0,
                    0,
                    0,
                    0,
                    0,
                    0,
                    0,
                    0,
                    0,
                    0,
                    0,
                    0,
                    0,
                    0,
                    0,
                    0,
                    0,
                    0,
                    0,
                    0,
                    0,
                    0,
                    0,
                    0,
                    0,
                    0
                ]
            }
        },
        {
            "substance_name": "nitrogen",
            "substance_type": "small molecule",
            "substance_descriptors": {
                "CID": 947,
                "MolecularFormula": "N2",
                "MolecularWeight": "28.014",
                "CanonicalSMILES": "N#N",
                "IsomericSMILES": "N#N",
                "InChI": "InChI=1S/N2/c1-2",
                "InChIKey": "IJGRMHOSHXDMSA-UHFFFAOYSA-N",
                "IUPACName": "molecular nitrogen",
                "XLogP": 0.1,
                "ExactMass": "28.006148008",
                "MonoisotopicMass": "28.006148008",
                "TPSA": 47.6,
                "Complexity": 8,
                "Charge": 0,
                "HBondDonorCount": 0,
                "HBondAcceptorCount": 2,
                "RotatableBondCount": 0,
                "HeavyAtomCount": 2,
                "IsotopeAtomCount": 0,
                "AtomStereoCount": 0,
                "DefinedAtomStereoCount": 0,
                "UndefinedAtomStereoCount": 0,
                "BondStereoCount": 0,
                "DefinedBondStereoCount": 0,
                "UndefinedBondStereoCount": 0,
                "CovalentUnitCount": 1,
                "Volume3D": 23.1,
                "XStericQuadrupole3D": 0.82,
                "YStericQuadrupole3D": 0.51,
                "ZStericQuadrupole3D": 0.51,
                "FeatureAcceptorCount3D": 0,
                "FeatureDonorCount3D": 0,
                "FeatureAnionCount3D": 0,
                "FeatureCationCount3D": 0,
                "FeatureRingCount3D": 0,
                "FeatureHydrophobeCount3D": 0,
                "ConformerModelRMSD3D": 0.4,
                "EffectiveRotorCount3D": 0,
                "ConformerCount3D": 1,
                "Morgan_128": [
                    0,
                    0,
                    0,
                    0,
                    0,
                    0,
                    0,
                    0,
                    0,
                    0,
                    0,
                    0,
                    0,
                    0,
                    0,
                    0,
                    0,
                    0,
                    0,
                    0,
                    0,
                    0,
                    0,
                    0,
                    0,
                    0,
                    0,
                    0,
                    0,
                    0,
                    0,
                    0,
                    0,
                    0,
                    0,
                    0,
                    0,
                    0,
                    0,
                    0,
                    0,
                    0,
                    0,
                    0,
                    0,
                    0,
                    0,
                    0,
                    0,
                    0,
                    0,
                    0,
                    0,
                    0,
                    0,
                    0,
                    0,
                    0,
                    0,
                    0,
                    0,
                    0,
                    0,
                    0,
                    0,
                    0,
                    0,
                    0,
                    0,
                    0,
                    0,
                    0,
                    0,
                    0,
                    0,
                    0,
                    1,
                    0,
                    0,
                    0,
                    0,
                    0,
                    0,
                    0,
                    0,
                    0,
                    0,
                    0,
                    0,
                    0,
                    0,
                    0,
                    0,
                    0,
                    0,
                    0,
                    0,
                    0,
                    0,
                    0,
                    0,
                    0,
                    0,
                    0,
                    1,
                    0,
                    0,
                    0,
                    0,
                    0,
                    0,
                    0,
                    0,
                    0,
                    0,
                    0,
                    0,
                    0,
                    0,
                    0,
                    0,
                    0,
                    0,
                    0,
                    0,
                    0,
                    0,
                    0
                ]
            }
        }
    ],
    "LDL_ranking": 1.0,
    "UDL_ranking": null,
    "LDL_category": "Moderate Detection",
    "UDL_category": null
}