{
    "DOI": "10.1109/SENSORS47087.2021.9639820",
    "sensor_type": "gas",
    "detect_target": [
        {
            "substance_name": "hydrogen",
            "substance_type": "small molecule",
            "substance_descriptors": {
                "CID": 783,
                "MolecularFormula": "H2",
                "MolecularWeight": "2.016",
                "CanonicalSMILES": "[HH]",
                "IsomericSMILES": "[HH]",
                "InChI": "InChI=1S/H2/h1H",
                "InChIKey": "UFHFLCQGNIYNRP-UHFFFAOYSA-N",
                "IUPACName": "molecular hydrogen",
                "XLogP": 0,
                "ExactMass": "2.0156500638",
                "MonoisotopicMass": "2.0156500638",
                "TPSA": 0,
                "Complexity": 0,
                "Charge": 0,
                "HBondDonorCount": 0,
                "HBondAcceptorCount": 0,
                "RotatableBondCount": 0,
                "HeavyAtomCount": 0,
                "IsotopeAtomCount": 0,
                "AtomStereoCount": 0,
                "DefinedAtomStereoCount": 0,
                "UndefinedAtomStereoCount": 0,
                "BondStereoCount": 0,
                "DefinedBondStereoCount": 0,
                "UndefinedBondStereoCount": 0,
                "CovalentUnitCount": 1,
                "ConformerCount3D": 0,
                "Morgan_128": [
                    0,
                    0,
                    0,
                    0,
                    0,
                    0,
                    0,
                    1,
                    0,
                    0,
                    0,
                    0,
                    0,
                    0,
                    0,
                    0,
                    0,
                    0,
                    0,
                    0,
                    0,
                    0,
                    0,
                    0,
                    0,
                    0,
                    0,
                    0,
                    0,
                    0,
                    0,
                    0,
                    0,
                    0,
                    0,
                    0,
                    0,
                    0,
                    0,
                    0,
                    0,
                    0,
                    0,
                    0,
                    0,
                    0,
                    0,
                    0,
                    0,
                    0,
                    0,
                    0,
                    0,
                    0,
                    0,
                    0,
                    0,
                    0,
                    0,
                    0,
                    0,
                    0,
                    0,
                    0,
                    0,
                    0,
                    0,
                    0,
                    0,
                    0,
                    0,
                    0,
                    0,
                    0,
                    0,
                    0,
                    0,
                    0,
                    0,
                    0,
                    0,
                    0,
                    0,
                    0,
                    0,
                    0,
                    0,
                    0,
                    0,
                    0,
                    0,
                    0,
                    0,
                    0,
                    0,
                    0,
                    0,
                    0,
                    0,
                    0,
                    0,
                    0,
                    0,
                    0,
                    0,
                    0,
                    0,
                    0,
                    0,
                    0,
                    0,
                    0,
                    0,
                    0,
                    0,
                    0,
                    0,
                    0,
                    0,
                    0,
                    0,
                    0,
                    0,
                    0,
                    0,
                    0,
                    0,
                    0
                ]
            }
        }
    ],
    "lower_detection_limit_log_ppm": 3.0,
    "upper_detection_limit_log_ppm": 4.0,
    "probe_material": [
        {
            "substance_name": "indium oxide",
            "substance_type": "inorganic solid",
            "substance_descriptors": {
                "Number of Elements": 2,
                "Element Types": [
                    "In",
                    "O"
                ],
                "Number of Atoms in Unit Cell": 40,
                "Lattice Parameter a (\u00c5)": "10.117",
                "Lattice Parameter b (\u00c5)": "10.117",
                "Lattice Parameter c (\u00c5)": "10.117",
                "Lattice Angle alpha (degrees)": "90",
                "Lattice Angle beta (degrees)": "90",
                "Lattice Angle gamma (degrees)": "90",
                "Unit Cell Volume (\u00c5\u00b3)": 526.9797159082179,
                "Density (g/cm\u00b3)": 6.998712419580598,
                "Space Group Number": 167,
                "Band Gap (eV)": 0.9288999999999996,
                "Is Metallic (1/0)": 0,
                "Formation Energy per Atom (eV)": -1.8634906622499983,
                "Energy Above Hull (eV/atom)": 0.0,
                "Energy per Atom (eV/atom)": -14.47131712925,
                "Total Magnetization (\u03bcB)": 0.0,
                "Magnetic Ordering": "NM",
                "Bulk Modulus (GPa)": 144.766,
                "Shear Modulus (GPa)": 57.394,
                "Fermi Energy (eV)": 5.00893391,
                "Total Energy (eV)": -3.36604,
                "Crystal System": "trigonal",
                "Magpie Descriptors": {
                    "MagpieData minimum Number": 8.0,
                    "MagpieData maximum Number": 49.0,
                    "MagpieData range Number": 41.0,
                    "MagpieData mean Number": 24.400000000000002,
                    "MagpieData avg_dev Number": 19.68,
                    "MagpieData mode Number": 8.0,
                    "MagpieData std_dev Number": 28.99137802864845,
                    "MagpieData minimum MendeleevNumber": 75.0,
                    "MagpieData maximum MendeleevNumber": 87.0,
                    "MagpieData range MendeleevNumber": 12.0,
                    "MagpieData mean MendeleevNumber": 82.19999999999999,
                    "MagpieData avg_dev MendeleevNumber": 5.760000000000002,
                    "MagpieData mode MendeleevNumber": 87.0,
                    "MagpieData std_dev MendeleevNumber": 8.485281374238571,
                    "MagpieData minimum AtomicWeight": 15.9994,
                    "MagpieData maximum AtomicWeight": 114.818,
                    "MagpieData range AtomicWeight": 98.8186,
                    "MagpieData mean AtomicWeight": 55.52684,
                    "MagpieData avg_dev AtomicWeight": 47.432928000000004,
                    "MagpieData mode AtomicWeight": 15.9994,
                    "MagpieData std_dev AtomicWeight": 69.87530216736097,
                    "MagpieData minimum MeltingT": 54.8,
                    "MagpieData maximum MeltingT": 429.75,
                    "MagpieData range MeltingT": 374.95,
                    "MagpieData mean MeltingT": 204.78,
                    "MagpieData avg_dev MeltingT": 179.976,
                    "MagpieData mode MeltingT": 54.8,
                    "MagpieData std_dev MeltingT": 265.129687605896,
                    "MagpieData minimum Column": 13.0,
                    "MagpieData maximum Column": 16.0,
                    "MagpieData range Column": 3.0,
                    "MagpieData mean Column": 14.8,
                    "MagpieData avg_dev Column": 1.44,
                    "MagpieData mode Column": 16.0,
                    "MagpieData std_dev Column": 2.121320343559643,
                    "MagpieData minimum Row": 2.0,
                    "MagpieData maximum Row": 5.0,
                    "MagpieData range Row": 3.0,
                    "MagpieData mean Row": 3.2,
                    "MagpieData avg_dev Row": 1.44,
                    "MagpieData mode Row": 2.0,
                    "MagpieData std_dev Row": 2.121320343559643,
                    "MagpieData minimum CovalentRadius": 66.0,
                    "MagpieData maximum CovalentRadius": 142.0,
                    "MagpieData range CovalentRadius": 76.0,
                    "MagpieData mean CovalentRadius": 96.4,
                    "MagpieData avg_dev CovalentRadius": 36.480000000000004,
                    "MagpieData mode CovalentRadius": 66.0,
                    "MagpieData std_dev CovalentRadius": 53.74011537017762,
                    "MagpieData minimum Electronegativity": 1.78,
                    "MagpieData maximum Electronegativity": 3.44,
                    "MagpieData range Electronegativity": 1.66,
                    "MagpieData mean Electronegativity": 2.7760000000000002,
                    "MagpieData avg_dev Electronegativity": 0.7968,
                    "MagpieData mode Electronegativity": 3.44,
                    "MagpieData std_dev Electronegativity": 1.1737972567696688,
                    "MagpieData minimum NsValence": 2.0,
                    "MagpieData maximum NsValence": 2.0,
                    "MagpieData range NsValence": 0.0,
                    "MagpieData mean NsValence": 2.0,
                    "MagpieData avg_dev NsValence": 0.0,
                    "MagpieData mode NsValence": 2.0,
                    "MagpieData std_dev NsValence": 0.0,
                    "MagpieData minimum NpValence": 1.0,
                    "MagpieData maximum NpValence": 4.0,
                    "MagpieData range NpValence": 3.0,
                    "MagpieData mean NpValence": 2.8,
                    "MagpieData avg_dev NpValence": 1.44,
                    "MagpieData mode NpValence": 4.0,
                    "MagpieData std_dev NpValence": 2.121320343559643,
                    "MagpieData minimum NdValence": 0.0,
                    "MagpieData maximum NdValence": 10.0,
                    "MagpieData range NdValence": 10.0,
                    "MagpieData mean NdValence": 4.0,
                    "MagpieData avg_dev NdValence": 4.800000000000001,
                    "MagpieData mode NdValence": 0.0,
                    "MagpieData std_dev NdValence": 7.0710678118654755,
                    "MagpieData minimum NfValence": 0.0,
                    "MagpieData maximum NfValence": 0.0,
                    "MagpieData range NfValence": 0.0,
                    "MagpieData mean NfValence": 0.0,
                    "MagpieData avg_dev NfValence": 0.0,
                    "MagpieData mode NfValence": 0.0,
                    "MagpieData std_dev NfValence": 0.0,
                    "MagpieData minimum NValence": 6.0,
                    "MagpieData maximum NValence": 13.0,
                    "MagpieData range NValence": 7.0,
                    "MagpieData mean NValence": 8.8,
                    "MagpieData avg_dev NValence": 3.3600000000000003,
                    "MagpieData mode NValence": 6.0,
                    "MagpieData std_dev NValence": 4.949747468305833,
                    "MagpieData minimum NsUnfilled": 0.0,
                    "MagpieData maximum NsUnfilled": 0.0,
                    "MagpieData range NsUnfilled": 0.0,
                    "MagpieData mean NsUnfilled": 0.0,
                    "MagpieData avg_dev NsUnfilled": 0.0,
                    "MagpieData mode NsUnfilled": 0.0,
                    "MagpieData std_dev NsUnfilled": 0.0,
                    "MagpieData minimum NpUnfilled": 2.0,
                    "MagpieData maximum NpUnfilled": 5.0,
                    "MagpieData range NpUnfilled": 3.0,
                    "MagpieData mean NpUnfilled": 3.2,
                    "MagpieData avg_dev NpUnfilled": 1.44,
                    "MagpieData mode NpUnfilled": 2.0,
                    "MagpieData std_dev NpUnfilled": 2.121320343559643,
                    "MagpieData minimum NdUnfilled": 0.0,
                    "MagpieData maximum NdUnfilled": 0.0,
                    "MagpieData range NdUnfilled": 0.0,
                    "MagpieData mean NdUnfilled": 0.0,
                    "MagpieData avg_dev NdUnfilled": 0.0,
                    "MagpieData mode NdUnfilled": 0.0,
                    "MagpieData std_dev NdUnfilled": 0.0,
                    "MagpieData minimum NfUnfilled": 0.0,
                    "MagpieData maximum NfUnfilled": 0.0,
                    "MagpieData range NfUnfilled": 0.0,
                    "MagpieData mean NfUnfilled": 0.0,
                    "MagpieData avg_dev NfUnfilled": 0.0,
                    "MagpieData mode NfUnfilled": 0.0,
                    "MagpieData std_dev NfUnfilled": 0.0,
                    "MagpieData minimum NUnfilled": 2.0,
                    "MagpieData maximum NUnfilled": 5.0,
                    "MagpieData range NUnfilled": 3.0,
                    "MagpieData mean NUnfilled": 3.2,
                    "MagpieData avg_dev NUnfilled": 1.44,
                    "MagpieData mode NUnfilled": 2.0,
                    "MagpieData std_dev NUnfilled": 2.121320343559643,
                    "MagpieData minimum GSvolume_pa": 9.105,
                    "MagpieData maximum GSvolume_pa": 24.26,
                    "MagpieData range GSvolume_pa": 15.155000000000001,
                    "MagpieData mean GSvolume_pa": 15.167000000000002,
                    "MagpieData avg_dev GSvolume_pa": 7.2744,
                    "MagpieData mode GSvolume_pa": 9.105,
                    "MagpieData std_dev GSvolume_pa": 10.71620326888213,
                    "MagpieData minimum GSbandgap": 0.0,
                    "MagpieData maximum GSbandgap": 0.0,
                    "MagpieData range GSbandgap": 0.0,
                    "MagpieData mean GSbandgap": 0.0,
                    "MagpieData avg_dev GSbandgap": 0.0,
                    "MagpieData mode GSbandgap": 0.0,
                    "MagpieData std_dev GSbandgap": 0.0,
                    "MagpieData minimum GSmagmom": 0.0,
                    "MagpieData maximum GSmagmom": 0.0,
                    "MagpieData range GSmagmom": 0.0,
                    "MagpieData mean GSmagmom": 0.0,
                    "MagpieData avg_dev GSmagmom": 0.0,
                    "MagpieData mode GSmagmom": 0.0,
                    "MagpieData std_dev GSmagmom": 0.0,
                    "MagpieData minimum SpaceGroupNumber": 12.0,
                    "MagpieData maximum SpaceGroupNumber": 139.0,
                    "MagpieData range SpaceGroupNumber": 127.0,
                    "MagpieData mean SpaceGroupNumber": 62.8,
                    "MagpieData avg_dev SpaceGroupNumber": 60.96,
                    "MagpieData mode SpaceGroupNumber": 12.0,
                    "MagpieData std_dev SpaceGroupNumber": 89.80256121069154
                }
            }
        },
        {
            "substance_name": "tin dioxide",
            "substance_type": "inorganic solid",
            "substance_descriptors": {
                "Number of Elements": 2,
                "Element Types": [
                    "Sn",
                    "O"
                ],
                "Number of Atoms in Unit Cell": 6,
                "Lattice Parameter a (\u00c5)": "4.738",
                "Lattice Parameter b (\u00c5)": "4.738",
                "Lattice Parameter c (\u00c5)": "3.1865",
                "Lattice Angle alpha (degrees)": "90",
                "Lattice Angle beta (degrees)": "90",
                "Lattice Angle gamma (degrees)": "90",
                "Unit Cell Volume (\u00c5\u00b3)": 72.82143907393863,
                "Density (g/cm\u00b3)": 6.873191556302777,
                "Space Group Number": 136,
                "Band Gap (eV)": 0.6519000000000004,
                "Is Metallic (1/0)": 0,
                "Formation Energy per Atom (eV)": -1.8877848549999996,
                "Energy Above Hull (eV/atom)": 0.0,
                "Energy per Atom (eV/atom)": -14.110279798333332,
                "Total Magnetization (\u03bcB)": 0.0,
                "Magnetic Ordering": "NM",
                "Bulk Modulus (GPa)": 171.933,
                "Shear Modulus (GPa)": 87.385,
                "Fermi Energy (eV)": 5.59411961,
                "Total Energy (eV)": -4.10955,
                "Crystal System": "tetragonal",
                "Magpie Descriptors": {
                    "MagpieData minimum Number": 8.0,
                    "MagpieData maximum Number": 50.0,
                    "MagpieData range Number": 42.0,
                    "MagpieData mean Number": 21.999999999999996,
                    "MagpieData avg_dev Number": 18.666666666666664,
                    "MagpieData mode Number": 8.0,
                    "MagpieData std_dev Number": 29.698484809834994,
                    "MagpieData minimum MendeleevNumber": 80.0,
                    "MagpieData maximum MendeleevNumber": 87.0,
                    "MagpieData range MendeleevNumber": 7.0,
                    "MagpieData mean MendeleevNumber": 84.66666666666666,
                    "MagpieData avg_dev MendeleevNumber": 3.1111111111111143,
                    "MagpieData mode MendeleevNumber": 87.0,
                    "MagpieData std_dev MendeleevNumber": 4.949747468305833,
                    "MagpieData minimum AtomicWeight": 15.9994,
                    "MagpieData maximum AtomicWeight": 118.71,
                    "MagpieData range AtomicWeight": 102.7106,
                    "MagpieData mean AtomicWeight": 50.23626666666666,
                    "MagpieData avg_dev AtomicWeight": 45.64915555555555,
                    "MagpieData mode AtomicWeight": 15.9994,
                    "MagpieData std_dev AtomicWeight": 72.62736175973902,
                    "MagpieData minimum MeltingT": 54.8,
                    "MagpieData maximum MeltingT": 505.08,
                    "MagpieData range MeltingT": 450.28,
                    "MagpieData mean MeltingT": 204.89333333333332,
                    "MagpieData avg_dev MeltingT": 200.1244444444444,
                    "MagpieData mode MeltingT": 54.8,
                    "MagpieData std_dev MeltingT": 318.3960414326786,
                    "MagpieData minimum Column": 14.0,
                    "MagpieData maximum Column": 16.0,
                    "MagpieData range Column": 2.0,
                    "MagpieData mean Column": 15.333333333333332,
                    "MagpieData avg_dev Column": 0.8888888888888893,
                    "MagpieData mode Column": 16.0,
                    "MagpieData std_dev Column": 1.4142135623730951,
                    "MagpieData minimum Row": 2.0,
                    "MagpieData maximum Row": 5.0,
                    "MagpieData range Row": 3.0,
                    "MagpieData mean Row": 3.0,
                    "MagpieData avg_dev Row": 1.3333333333333333,
                    "MagpieData mode Row": 2.0,
                    "MagpieData std_dev Row": 2.1213203435596424,
                    "MagpieData minimum CovalentRadius": 66.0,
                    "MagpieData maximum CovalentRadius": 139.0,
                    "MagpieData range CovalentRadius": 73.0,
                    "MagpieData mean CovalentRadius": 90.33333333333333,
                    "MagpieData avg_dev CovalentRadius": 32.44444444444444,
                    "MagpieData mode CovalentRadius": 66.0,
                    "MagpieData std_dev CovalentRadius": 51.61879502661797,
                    "MagpieData minimum Electronegativity": 1.96,
                    "MagpieData maximum Electronegativity": 3.44,
                    "MagpieData range Electronegativity": 1.48,
                    "MagpieData mean Electronegativity": 2.9466666666666663,
                    "MagpieData avg_dev Electronegativity": 0.6577777777777778,
                    "MagpieData mode Electronegativity": 3.44,
                    "MagpieData std_dev Electronegativity": 1.0465180361560904,
                    "MagpieData minimum NsValence": 2.0,
                    "MagpieData maximum NsValence": 2.0,
                    "MagpieData range NsValence": 0.0,
                    "MagpieData mean NsValence": 2.0,
                    "MagpieData avg_dev NsValence": 0.0,
                    "MagpieData mode NsValence": 2.0,
                    "MagpieData std_dev NsValence": 0.0,
                    "MagpieData minimum NpValence": 2.0,
                    "MagpieData maximum NpValence": 4.0,
                    "MagpieData range NpValence": 2.0,
                    "MagpieData mean NpValence": 3.333333333333333,
                    "MagpieData avg_dev NpValence": 0.888888888888889,
                    "MagpieData mode NpValence": 4.0,
                    "MagpieData std_dev NpValence": 1.4142135623730951,
                    "MagpieData minimum NdValence": 0.0,
                    "MagpieData maximum NdValence": 10.0,
                    "MagpieData range NdValence": 10.0,
                    "MagpieData mean NdValence": 3.333333333333333,
                    "MagpieData avg_dev NdValence": 4.444444444444445,
                    "MagpieData mode NdValence": 0.0,
                    "MagpieData std_dev NdValence": 7.0710678118654755,
                    "MagpieData minimum NfValence": 0.0,
                    "MagpieData maximum NfValence": 0.0,
                    "MagpieData range NfValence": 0.0,
                    "MagpieData mean NfValence": 0.0,
                    "MagpieData avg_dev NfValence": 0.0,
                    "MagpieData mode NfValence": 0.0,
                    "MagpieData std_dev NfValence": 0.0,
                    "MagpieData minimum NValence": 6.0,
                    "MagpieData maximum NValence": 14.0,
                    "MagpieData range NValence": 8.0,
                    "MagpieData mean NValence": 8.666666666666666,
                    "MagpieData avg_dev NValence": 3.5555555555555554,
                    "MagpieData mode NValence": 6.0,
                    "MagpieData std_dev NValence": 5.656854249492381,
                    "MagpieData minimum NsUnfilled": 0.0,
                    "MagpieData maximum NsUnfilled": 0.0,
                    "MagpieData range NsUnfilled": 0.0,
                    "MagpieData mean NsUnfilled": 0.0,
                    "MagpieData avg_dev NsUnfilled": 0.0,
                    "MagpieData mode NsUnfilled": 0.0,
                    "MagpieData std_dev NsUnfilled": 0.0,
                    "MagpieData minimum NpUnfilled": 2.0,
                    "MagpieData maximum NpUnfilled": 4.0,
                    "MagpieData range NpUnfilled": 2.0,
                    "MagpieData mean NpUnfilled": 2.6666666666666665,
                    "MagpieData avg_dev NpUnfilled": 0.8888888888888888,
                    "MagpieData mode NpUnfilled": 2.0,
                    "MagpieData std_dev NpUnfilled": 1.4142135623730951,
                    "MagpieData minimum NdUnfilled": 0.0,
                    "MagpieData maximum NdUnfilled": 0.0,
                    "MagpieData range NdUnfilled": 0.0,
                    "MagpieData mean NdUnfilled": 0.0,
                    "MagpieData avg_dev NdUnfilled": 0.0,
                    "MagpieData mode NdUnfilled": 0.0,
                    "MagpieData std_dev NdUnfilled": 0.0,
                    "MagpieData minimum NfUnfilled": 0.0,
                    "MagpieData maximum NfUnfilled": 0.0,
                    "MagpieData range NfUnfilled": 0.0,
                    "MagpieData mean NfUnfilled": 0.0,
                    "MagpieData avg_dev NfUnfilled": 0.0,
                    "MagpieData mode NfUnfilled": 0.0,
                    "MagpieData std_dev NfUnfilled": 0.0,
                    "MagpieData minimum NUnfilled": 2.0,
                    "MagpieData maximum NUnfilled": 4.0,
                    "MagpieData range NUnfilled": 2.0,
                    "MagpieData mean NUnfilled": 2.6666666666666665,
                    "MagpieData avg_dev NUnfilled": 0.8888888888888888,
                    "MagpieData mode NUnfilled": 2.0,
                    "MagpieData std_dev NUnfilled": 1.4142135623730951,
                    "MagpieData minimum GSvolume_pa": 9.105,
                    "MagpieData maximum GSvolume_pa": 33.285,
                    "MagpieData range GSvolume_pa": 24.179999999999996,
                    "MagpieData mean GSvolume_pa": 17.165,
                    "MagpieData avg_dev GSvolume_pa": 10.746666666666664,
                    "MagpieData mode GSvolume_pa": 9.105,
                    "MagpieData std_dev GSvolume_pa": 17.09784196909072,
                    "MagpieData minimum GSbandgap": 0.0,
                    "MagpieData maximum GSbandgap": 0.0,
                    "MagpieData range GSbandgap": 0.0,
                    "MagpieData mean GSbandgap": 0.0,
                    "MagpieData avg_dev GSbandgap": 0.0,
                    "MagpieData mode GSbandgap": 0.0,
                    "MagpieData std_dev GSbandgap": 0.0,
                    "MagpieData minimum GSmagmom": 0.0,
                    "MagpieData maximum GSmagmom": 0.0,
                    "MagpieData range GSmagmom": 0.0,
                    "MagpieData mean GSmagmom": 0.0,
                    "MagpieData avg_dev GSmagmom": 0.0,
                    "MagpieData mode GSmagmom": 0.0,
                    "MagpieData std_dev GSmagmom": 0.0,
                    "MagpieData minimum SpaceGroupNumber": 12.0,
                    "MagpieData maximum SpaceGroupNumber": 141.0,
                    "MagpieData range SpaceGroupNumber": 129.0,
                    "MagpieData mean SpaceGroupNumber": 55.0,
                    "MagpieData avg_dev SpaceGroupNumber": 57.33333333333333,
                    "MagpieData mode SpaceGroupNumber": 12.0,
                    "MagpieData std_dev SpaceGroupNumber": 91.21677477306461
                }
            }
        }
    ],
    "test_operating_temperature_celsius": 200.0,
    "min_pH_when_testing": -1.0,
    "max_pH_when_testing": -1.0,
    "test_medium_electrolyte": [
        {
            "substance_name": "argon",
            "substance_type": "small molecule",
            "substance_descriptors": {
                "CID": 23968,
                "MolecularFormula": "Ar",
                "MolecularWeight": "39.9",
                "CanonicalSMILES": "[Ar]",
                "IsomericSMILES": "[Ar]",
                "InChI": "InChI=1S/Ar",
                "InChIKey": "XKRFYHLGVUSROY-UHFFFAOYSA-N",
                "IUPACName": "argon",
                "ExactMass": "39.96238312",
                "MonoisotopicMass": "39.96238312",
                "TPSA": 0,
                "Complexity": 0,
                "Charge": 0,
                "HBondDonorCount": 0,
                "HBondAcceptorCount": 0,
                "RotatableBondCount": 0,
                "HeavyAtomCount": 1,
                "IsotopeAtomCount": 0,
                "AtomStereoCount": 0,
                "DefinedAtomStereoCount": 0,
                "UndefinedAtomStereoCount": 0,
                "BondStereoCount": 0,
                "DefinedBondStereoCount": 0,
                "UndefinedBondStereoCount": 0,
                "CovalentUnitCount": 1,
                "ConformerCount3D": 0,
                "Morgan_128": [
                    0,
                    0,
                    0,
                    0,
                    0,
                    0,
                    0,
                    0,
                    0,
                    0,
                    0,
                    0,
                    0,
                    0,
                    0,
                    0,
                    0,
                    0,
                    0,
                    0,
                    0,
                    0,
                    0,
                    0,
                    0,
                    0,
                    0,
                    0,
                    0,
                    0,
                    0,
                    0,
                    0,
                    0,
                    0,
                    0,
                    0,
                    0,
                    0,
                    0,
                    0,
                    1,
                    0,
                    0,
                    0,
                    0,
                    0,
                    0,
                    0,
                    0,
                    0,
                    0,
                    0,
                    0,
                    0,
                    0,
                    0,
                    0,
                    0,
                    0,
                    0,
                    0,
                    0,
                    0,
                    0,
                    0,
                    0,
                    0,
                    0,
                    0,
                    0,
                    0,
                    0,
                    0,
                    0,
                    0,
                    0,
                    0,
                    0,
                    0,
                    0,
                    0,
                    0,
                    0,
                    0,
                    0,
                    0,
                    0,
                    0,
                    0,
                    0,
                    0,
                    0,
                    0,
                    0,
                    0,
                    0,
                    0,
                    0,
                    0,
                    0,
                    0,
                    0,
                    0,
                    0,
                    0,
                    0,
                    0,
                    0,
                    0,
                    0,
                    0,
                    0,
                    0,
                    0,
                    0,
                    0,
                    0,
                    0,
                    0,
                    0,
                    0,
                    0,
                    0,
                    0,
                    0,
                    0,
                    0
                ]
            }
        }
    ],
    "LDL_ranking": 1.0,
    "UDL_ranking": 1.0,
    "LDL_category": "Very High Detection (Low Sensitivity)",
    "UDL_category": "High UDL Range"
}