{
    "DOI": "10.1021/acsami.9b16552",
    "sensor_type": "gas",
    "detect_target": [
        {
            "substance_name": "formaldehyde",
            "substance_type": "small molecule",
            "substance_descriptors": {
                "CID": 712,
                "MolecularFormula": "CH2O",
                "MolecularWeight": "30.026",
                "CanonicalSMILES": "C=O",
                "IsomericSMILES": "C=O",
                "InChI": "InChI=1S/CH2O/c1-2/h1H2",
                "InChIKey": "WSFSSNUMVMOOMR-UHFFFAOYSA-N",
                "IUPACName": "formaldehyde",
                "XLogP": 1.2,
                "ExactMass": "30.010564683",
                "MonoisotopicMass": "30.010564683",
                "TPSA": 17.1,
                "Complexity": 2,
                "Charge": 0,
                "HBondDonorCount": 0,
                "HBondAcceptorCount": 1,
                "RotatableBondCount": 0,
                "HeavyAtomCount": 2,
                "IsotopeAtomCount": 0,
                "AtomStereoCount": 0,
                "DefinedAtomStereoCount": 0,
                "UndefinedAtomStereoCount": 0,
                "BondStereoCount": 0,
                "DefinedBondStereoCount": 0,
                "UndefinedBondStereoCount": 0,
                "CovalentUnitCount": 1,
                "Volume3D": 26.8,
                "XStericQuadrupole3D": 0.93,
                "YStericQuadrupole3D": 0.56,
                "ZStericQuadrupole3D": 0.56,
                "FeatureAcceptorCount3D": 1,
                "FeatureDonorCount3D": 0,
                "FeatureAnionCount3D": 0,
                "FeatureCationCount3D": 0,
                "FeatureRingCount3D": 0,
                "FeatureHydrophobeCount3D": 0,
                "ConformerModelRMSD3D": 0.4,
                "EffectiveRotorCount3D": 0,
                "ConformerCount3D": 1,
                "Morgan_128": [
                    0,
                    0,
                    0,
                    0,
                    0,
                    0,
                    0,
                    0,
                    0,
                    0,
                    1,
                    0,
                    0,
                    0,
                    0,
                    0,
                    0,
                    0,
                    0,
                    0,
                    0,
                    0,
                    0,
                    0,
                    0,
                    0,
                    0,
                    0,
                    0,
                    0,
                    0,
                    0,
                    0,
                    0,
                    0,
                    0,
                    0,
                    0,
                    0,
                    0,
                    0,
                    0,
                    0,
                    0,
                    0,
                    0,
                    0,
                    0,
                    0,
                    0,
                    0,
                    0,
                    0,
                    0,
                    0,
                    0,
                    0,
                    0,
                    0,
                    0,
                    0,
                    0,
                    0,
                    0,
                    0,
                    0,
                    0,
                    0,
                    0,
                    0,
                    0,
                    0,
                    0,
                    0,
                    0,
                    0,
                    1,
                    0,
                    0,
                    0,
                    0,
                    0,
                    0,
                    0,
                    0,
                    0,
                    1,
                    0,
                    0,
                    0,
                    0,
                    0,
                    0,
                    0,
                    0,
                    0,
                    0,
                    0,
                    0,
                    0,
                    0,
                    0,
                    0,
                    0,
                    0,
                    0,
                    0,
                    0,
                    0,
                    0,
                    0,
                    0,
                    0,
                    0,
                    0,
                    0,
                    0,
                    0,
                    0,
                    0,
                    0,
                    0,
                    0,
                    0,
                    0,
                    0,
                    0,
                    0
                ]
            }
        }
    ],
    "lower_detection_limit_log_ppm": -3.0,
    "upper_detection_limit_log_ppm": 1.301029996,
    "probe_material": [
        {
            "substance_name": "tin (ii) sulfide",
            "substance_type": "inorganic solid",
            "substance_descriptors": {
                "Number of Elements": 2,
                "Element Types": [
                    "S",
                    "Sn"
                ],
                "Number of Atoms in Unit Cell": 8,
                "Lattice Parameter a (\u00c5)": "11.32",
                "Lattice Parameter b (\u00c5)": "4.05",
                "Lattice Parameter c (\u00c5)": "4.242",
                "Lattice Angle alpha (degrees)": "90",
                "Lattice Angle beta (degrees)": "90",
                "Lattice Angle gamma (degrees)": "90",
                "Unit Cell Volume (\u00c5\u00b3)": 204.3235483638381,
                "Density (g/cm\u00b3)": 4.90139839037615,
                "Space Group Number": 62,
                "Band Gap (eV)": 0.9047999999999998,
                "Is Metallic (1/0)": 0,
                "Formation Energy per Atom (eV)": -0.4716001876562501,
                "Energy Above Hull (eV/atom)": 0.0,
                "Energy per Atom (eV/atom)": -16.86219161875,
                "Total Magnetization (\u03bcB)": 0.0,
                "Magnetic Ordering": "NM",
                "Bulk Modulus (GPa)": 23.336,
                "Shear Modulus (GPa)": 18.459,
                "Fermi Energy (eV)": 5.56809629,
                "Total Energy (eV)": -2.08871,
                "Crystal System": "orthorhombic",
                "Magpie Descriptors": {
                    "MagpieData minimum Number": 16.0,
                    "MagpieData maximum Number": 50.0,
                    "MagpieData range Number": 34.0,
                    "MagpieData mean Number": 33.0,
                    "MagpieData avg_dev Number": 17.0,
                    "MagpieData mode Number": 16.0,
                    "MagpieData std_dev Number": 24.041630560342615,
                    "MagpieData minimum MendeleevNumber": 80.0,
                    "MagpieData maximum MendeleevNumber": 88.0,
                    "MagpieData range MendeleevNumber": 8.0,
                    "MagpieData mean MendeleevNumber": 84.0,
                    "MagpieData avg_dev MendeleevNumber": 4.0,
                    "MagpieData mode MendeleevNumber": 80.0,
                    "MagpieData std_dev MendeleevNumber": 5.656854249492381,
                    "MagpieData minimum AtomicWeight": 32.065,
                    "MagpieData maximum AtomicWeight": 118.71,
                    "MagpieData range AtomicWeight": 86.645,
                    "MagpieData mean AtomicWeight": 75.38749999999999,
                    "MagpieData avg_dev AtomicWeight": 43.3225,
                    "MagpieData mode AtomicWeight": 32.065,
                    "MagpieData std_dev AtomicWeight": 61.267267055908405,
                    "MagpieData minimum MeltingT": 388.36,
                    "MagpieData maximum MeltingT": 505.08,
                    "MagpieData range MeltingT": 116.71999999999997,
                    "MagpieData mean MeltingT": 446.72,
                    "MagpieData avg_dev MeltingT": 58.359999999999985,
                    "MagpieData mode MeltingT": 388.36,
                    "MagpieData std_dev MeltingT": 82.53350350009381,
                    "MagpieData minimum Column": 14.0,
                    "MagpieData maximum Column": 16.0,
                    "MagpieData range Column": 2.0,
                    "MagpieData mean Column": 15.0,
                    "MagpieData avg_dev Column": 1.0,
                    "MagpieData mode Column": 14.0,
                    "MagpieData std_dev Column": 1.4142135623730951,
                    "MagpieData minimum Row": 3.0,
                    "MagpieData maximum Row": 5.0,
                    "MagpieData range Row": 2.0,
                    "MagpieData mean Row": 4.0,
                    "MagpieData avg_dev Row": 1.0,
                    "MagpieData mode Row": 3.0,
                    "MagpieData std_dev Row": 1.4142135623730951,
                    "MagpieData minimum CovalentRadius": 105.0,
                    "MagpieData maximum CovalentRadius": 139.0,
                    "MagpieData range CovalentRadius": 34.0,
                    "MagpieData mean CovalentRadius": 122.0,
                    "MagpieData avg_dev CovalentRadius": 17.0,
                    "MagpieData mode CovalentRadius": 105.0,
                    "MagpieData std_dev CovalentRadius": 24.041630560342615,
                    "MagpieData minimum Electronegativity": 1.96,
                    "MagpieData maximum Electronegativity": 2.58,
                    "MagpieData range Electronegativity": 0.6200000000000001,
                    "MagpieData mean Electronegativity": 2.27,
                    "MagpieData avg_dev Electronegativity": 0.31000000000000005,
                    "MagpieData mode Electronegativity": 1.96,
                    "MagpieData std_dev Electronegativity": 0.4384062043356595,
                    "MagpieData minimum NsValence": 2.0,
                    "MagpieData maximum NsValence": 2.0,
                    "MagpieData range NsValence": 0.0,
                    "MagpieData mean NsValence": 2.0,
                    "MagpieData avg_dev NsValence": 0.0,
                    "MagpieData mode NsValence": 2.0,
                    "MagpieData std_dev NsValence": 0.0,
                    "MagpieData minimum NpValence": 2.0,
                    "MagpieData maximum NpValence": 4.0,
                    "MagpieData range NpValence": 2.0,
                    "MagpieData mean NpValence": 3.0,
                    "MagpieData avg_dev NpValence": 1.0,
                    "MagpieData mode NpValence": 2.0,
                    "MagpieData std_dev NpValence": 1.4142135623730951,
                    "MagpieData minimum NdValence": 0.0,
                    "MagpieData maximum NdValence": 10.0,
                    "MagpieData range NdValence": 10.0,
                    "MagpieData mean NdValence": 5.0,
                    "MagpieData avg_dev NdValence": 5.0,
                    "MagpieData mode NdValence": 0.0,
                    "MagpieData std_dev NdValence": 7.0710678118654755,
                    "MagpieData minimum NfValence": 0.0,
                    "MagpieData maximum NfValence": 0.0,
                    "MagpieData range NfValence": 0.0,
                    "MagpieData mean NfValence": 0.0,
                    "MagpieData avg_dev NfValence": 0.0,
                    "MagpieData mode NfValence": 0.0,
                    "MagpieData std_dev NfValence": 0.0,
                    "MagpieData minimum NValence": 6.0,
                    "MagpieData maximum NValence": 14.0,
                    "MagpieData range NValence": 8.0,
                    "MagpieData mean NValence": 10.0,
                    "MagpieData avg_dev NValence": 4.0,
                    "MagpieData mode NValence": 6.0,
                    "MagpieData std_dev NValence": 5.656854249492381,
                    "MagpieData minimum NsUnfilled": 0.0,
                    "MagpieData maximum NsUnfilled": 0.0,
                    "MagpieData range NsUnfilled": 0.0,
                    "MagpieData mean NsUnfilled": 0.0,
                    "MagpieData avg_dev NsUnfilled": 0.0,
                    "MagpieData mode NsUnfilled": 0.0,
                    "MagpieData std_dev NsUnfilled": 0.0,
                    "MagpieData minimum NpUnfilled": 2.0,
                    "MagpieData maximum NpUnfilled": 4.0,
                    "MagpieData range NpUnfilled": 2.0,
                    "MagpieData mean NpUnfilled": 3.0,
                    "MagpieData avg_dev NpUnfilled": 1.0,
                    "MagpieData mode NpUnfilled": 2.0,
                    "MagpieData std_dev NpUnfilled": 1.4142135623730951,
                    "MagpieData minimum NdUnfilled": 0.0,
                    "MagpieData maximum NdUnfilled": 0.0,
                    "MagpieData range NdUnfilled": 0.0,
                    "MagpieData mean NdUnfilled": 0.0,
                    "MagpieData avg_dev NdUnfilled": 0.0,
                    "MagpieData mode NdUnfilled": 0.0,
                    "MagpieData std_dev NdUnfilled": 0.0,
                    "MagpieData minimum NfUnfilled": 0.0,
                    "MagpieData maximum NfUnfilled": 0.0,
                    "MagpieData range NfUnfilled": 0.0,
                    "MagpieData mean NfUnfilled": 0.0,
                    "MagpieData avg_dev NfUnfilled": 0.0,
                    "MagpieData mode NfUnfilled": 0.0,
                    "MagpieData std_dev NfUnfilled": 0.0,
                    "MagpieData minimum NUnfilled": 2.0,
                    "MagpieData maximum NUnfilled": 4.0,
                    "MagpieData range NUnfilled": 2.0,
                    "MagpieData mean NUnfilled": 3.0,
                    "MagpieData avg_dev NUnfilled": 1.0,
                    "MagpieData mode NUnfilled": 2.0,
                    "MagpieData std_dev NUnfilled": 1.4142135623730951,
                    "MagpieData minimum GSvolume_pa": 25.786875,
                    "MagpieData maximum GSvolume_pa": 33.285,
                    "MagpieData range GSvolume_pa": 7.498124999999998,
                    "MagpieData mean GSvolume_pa": 29.535937499999996,
                    "MagpieData avg_dev GSvolume_pa": 3.749062499999999,
                    "MagpieData mode GSvolume_pa": 25.786875,
                    "MagpieData std_dev GSvolume_pa": 5.30197503368438,
                    "MagpieData minimum GSbandgap": 0.0,
                    "MagpieData maximum GSbandgap": 2.202,
                    "MagpieData range GSbandgap": 2.202,
                    "MagpieData mean GSbandgap": 1.101,
                    "MagpieData avg_dev GSbandgap": 1.101,
                    "MagpieData mode GSbandgap": 0.0,
                    "MagpieData std_dev GSbandgap": 1.5570491321727775,
                    "MagpieData minimum GSmagmom": 0.0,
                    "MagpieData maximum GSmagmom": 0.0,
                    "MagpieData range GSmagmom": 0.0,
                    "MagpieData mean GSmagmom": 0.0,
                    "MagpieData avg_dev GSmagmom": 0.0,
                    "MagpieData mode GSmagmom": 0.0,
                    "MagpieData std_dev GSmagmom": 0.0,
                    "MagpieData minimum SpaceGroupNumber": 70.0,
                    "MagpieData maximum SpaceGroupNumber": 141.0,
                    "MagpieData range SpaceGroupNumber": 71.0,
                    "MagpieData mean SpaceGroupNumber": 105.5,
                    "MagpieData avg_dev SpaceGroupNumber": 35.5,
                    "MagpieData mode SpaceGroupNumber": 70.0,
                    "MagpieData std_dev SpaceGroupNumber": 50.204581464244875
                }
            }
        }
    ],
    "test_operating_temperature_celsius": 27.5,
    "min_pH_when_testing": -1.0,
    "max_pH_when_testing": -1.0,
    "test_medium_electrolyte": [
        {
            "substance_name": "argon",
            "substance_type": "small molecule",
            "substance_descriptors": {
                "CID": 23968,
                "MolecularFormula": "Ar",
                "MolecularWeight": "39.9",
                "CanonicalSMILES": "[Ar]",
                "IsomericSMILES": "[Ar]",
                "InChI": "InChI=1S/Ar",
                "InChIKey": "XKRFYHLGVUSROY-UHFFFAOYSA-N",
                "IUPACName": "argon",
                "ExactMass": "39.96238312",
                "MonoisotopicMass": "39.96238312",
                "TPSA": 0,
                "Complexity": 0,
                "Charge": 0,
                "HBondDonorCount": 0,
                "HBondAcceptorCount": 0,
                "RotatableBondCount": 0,
                "HeavyAtomCount": 1,
                "IsotopeAtomCount": 0,
                "AtomStereoCount": 0,
                "DefinedAtomStereoCount": 0,
                "UndefinedAtomStereoCount": 0,
                "BondStereoCount": 0,
                "DefinedBondStereoCount": 0,
                "UndefinedBondStereoCount": 0,
                "CovalentUnitCount": 1,
                "ConformerCount3D": 0,
                "Morgan_128": [
                    0,
                    0,
                    0,
                    0,
                    0,
                    0,
                    0,
                    0,
                    0,
                    0,
                    0,
                    0,
                    0,
                    0,
                    0,
                    0,
                    0,
                    0,
                    0,
                    0,
                    0,
                    0,
                    0,
                    0,
                    0,
                    0,
                    0,
                    0,
                    0,
                    0,
                    0,
                    0,
                    0,
                    0,
                    0,
                    0,
                    0,
                    0,
                    0,
                    0,
                    0,
                    1,
                    0,
                    0,
                    0,
                    0,
                    0,
                    0,
                    0,
                    0,
                    0,
                    0,
                    0,
                    0,
                    0,
                    0,
                    0,
                    0,
                    0,
                    0,
                    0,
                    0,
                    0,
                    0,
                    0,
                    0,
                    0,
                    0,
                    0,
                    0,
                    0,
                    0,
                    0,
                    0,
                    0,
                    0,
                    0,
                    0,
                    0,
                    0,
                    0,
                    0,
                    0,
                    0,
                    0,
                    0,
                    0,
                    0,
                    0,
                    0,
                    0,
                    0,
                    0,
                    0,
                    0,
                    0,
                    0,
                    0,
                    0,
                    0,
                    0,
                    0,
                    0,
                    0,
                    0,
                    0,
                    0,
                    0,
                    0,
                    0,
                    0,
                    0,
                    0,
                    0,
                    0,
                    0,
                    0,
                    0,
                    0,
                    0,
                    0,
                    0,
                    0,
                    0,
                    0,
                    0,
                    0,
                    0
                ]
            }
        }
    ],
    "LDL_ranking": 1.0,
    "UDL_ranking": 1.0,
    "LDL_category": "Moderate Detection",
    "UDL_category": "Moderate UDL Range"
}