{
    "DOI": "10.1109/TBCAS.2019.2895069",
    "sensor_type": "liquid",
    "detect_target": [
        {
            "substance_name": "h+",
            "substance_type": "small molecule",
            "substance_descriptors": {
                "CID": 1038,
                "MolecularFormula": "H+",
                "MolecularWeight": "1.0080",
                "CanonicalSMILES": "[H+]",
                "IsomericSMILES": "[H+]",
                "InChI": "InChI=1S/p+1",
                "InChIKey": "GPRLSGONYQIRFK-UHFFFAOYSA-N",
                "IUPACName": "hydron",
                "XLogP": 0,
                "ExactMass": "1.0078250319",
                "MonoisotopicMass": "1.0078250319",
                "TPSA": 0,
                "Complexity": 0,
                "Charge": 1,
                "HBondDonorCount": 1,
                "HBondAcceptorCount": 0,
                "RotatableBondCount": 0,
                "HeavyAtomCount": 0,
                "IsotopeAtomCount": 0,
                "AtomStereoCount": 0,
                "DefinedAtomStereoCount": 0,
                "UndefinedAtomStereoCount": 0,
                "BondStereoCount": 0,
                "DefinedBondStereoCount": 0,
                "UndefinedBondStereoCount": 0,
                "CovalentUnitCount": 1,
                "ConformerCount3D": 0,
                "Morgan_128": [
                    0,
                    0,
                    0,
                    0,
                    0,
                    0,
                    0,
                    0,
                    0,
                    0,
                    0,
                    0,
                    0,
                    0,
                    0,
                    0,
                    0,
                    0,
                    0,
                    0,
                    0,
                    0,
                    0,
                    0,
                    0,
                    0,
                    0,
                    0,
                    0,
                    0,
                    0,
                    0,
                    0,
                    0,
                    0,
                    0,
                    0,
                    0,
                    0,
                    0,
                    1,
                    0,
                    0,
                    0,
                    0,
                    0,
                    0,
                    0,
                    0,
                    0,
                    0,
                    0,
                    0,
                    0,
                    0,
                    0,
                    0,
                    0,
                    0,
                    0,
                    0,
                    0,
                    0,
                    0,
                    0,
                    0,
                    0,
                    0,
                    0,
                    0,
                    0,
                    0,
                    0,
                    0,
                    0,
                    0,
                    0,
                    0,
                    0,
                    0,
                    0,
                    0,
                    0,
                    0,
                    0,
                    0,
                    0,
                    0,
                    0,
                    0,
                    0,
                    0,
                    0,
                    0,
                    0,
                    0,
                    0,
                    0,
                    0,
                    0,
                    0,
                    0,
                    0,
                    0,
                    0,
                    0,
                    0,
                    0,
                    0,
                    0,
                    0,
                    0,
                    0,
                    0,
                    0,
                    0,
                    0,
                    0,
                    0,
                    0,
                    0,
                    0,
                    0,
                    0,
                    0,
                    0,
                    0,
                    0
                ]
            }
        }
    ],
    "lower_detection_limit_log_ppm": -7.0,
    "upper_detection_limit_log_ppm": 0.0,
    "probe_material": [
        {
            "substance_name": "tantalum pentoxide",
            "substance_type": "inorganic solid",
            "substance_descriptors": {
                "Number of Elements": 2,
                "Element Types": [
                    "Ta",
                    "O"
                ],
                "Number of Atoms in Unit Cell": 7,
                "Lattice Parameter a (\u00c5)": "43.9969",
                "Lattice Parameter b (\u00c5)": "3.894",
                "Lattice Parameter c (\u00c5)": "6.209",
                "Lattice Angle alpha (degrees)": "90",
                "Lattice Angle beta (degrees)": "90",
                "Lattice Angle gamma (degrees)": "90",
                "Unit Cell Volume (\u00c5\u00b3)": 94.00053222379863,
                "Density (g/cm\u00b3)": 7.806128049155052,
                "Space Group Number": 59,
                "Band Gap (eV)": 0.26370000000000005,
                "Is Metallic (1/0)": 0,
                "Formation Energy per Atom (eV)": -2.7652399178095277,
                "Energy Above Hull (eV/atom)": 0.3186536607142827,
                "Energy per Atom (eV/atom)": -20.90622821071429,
                "Total Magnetization (\u03bcB)": 3.2e-06,
                "Magnetic Ordering": "NM",
                "Bulk Modulus (GPa)": 209.78,
                "Shear Modulus (GPa)": 73.45,
                "Fermi Energy (eV)": 2.40101273,
                "Total Energy (eV)": -7.86122,
                "Crystal System": "orthorhombic",
                "Magpie Descriptors": {
                    "MagpieData minimum Number": 8.0,
                    "MagpieData maximum Number": 73.0,
                    "MagpieData range Number": 65.0,
                    "MagpieData mean Number": 26.571428571428573,
                    "MagpieData avg_dev Number": 26.53061224489796,
                    "MagpieData mode Number": 8.0,
                    "MagpieData std_dev Number": 45.96194077712559,
                    "MagpieData minimum MendeleevNumber": 48.0,
                    "MagpieData maximum MendeleevNumber": 87.0,
                    "MagpieData range MendeleevNumber": 39.0,
                    "MagpieData mean MendeleevNumber": 75.85714285714286,
                    "MagpieData avg_dev MendeleevNumber": 15.918367346938773,
                    "MagpieData mode MendeleevNumber": 87.0,
                    "MagpieData std_dev MendeleevNumber": 27.57716446627535,
                    "MagpieData minimum AtomicWeight": 15.9994,
                    "MagpieData maximum AtomicWeight": 180.94788,
                    "MagpieData range AtomicWeight": 164.94848,
                    "MagpieData mean AtomicWeight": 63.12753714285714,
                    "MagpieData avg_dev AtomicWeight": 67.32591020408164,
                    "MagpieData mode AtomicWeight": 15.9994,
                    "MagpieData std_dev AtomicWeight": 116.63618875441361,
                    "MagpieData minimum MeltingT": 54.8,
                    "MagpieData maximum MeltingT": 3290.0,
                    "MagpieData range MeltingT": 3235.2,
                    "MagpieData mean MeltingT": 979.1428571428571,
                    "MagpieData avg_dev MeltingT": 1320.4897959183675,
                    "MagpieData mode MeltingT": 54.8,
                    "MagpieData std_dev MeltingT": 2287.6318584947185,
                    "MagpieData minimum Column": 5.0,
                    "MagpieData maximum Column": 16.0,
                    "MagpieData range Column": 11.0,
                    "MagpieData mean Column": 12.857142857142858,
                    "MagpieData avg_dev Column": 4.489795918367347,
                    "MagpieData mode Column": 16.0,
                    "MagpieData std_dev Column": 7.7781745930520225,
                    "MagpieData minimum Row": 2.0,
                    "MagpieData maximum Row": 6.0,
                    "MagpieData range Row": 4.0,
                    "MagpieData mean Row": 3.142857142857143,
                    "MagpieData avg_dev Row": 1.6326530612244898,
                    "MagpieData mode Row": 2.0,
                    "MagpieData std_dev Row": 2.82842712474619,
                    "MagpieData minimum CovalentRadius": 66.0,
                    "MagpieData maximum CovalentRadius": 170.0,
                    "MagpieData range CovalentRadius": 104.0,
                    "MagpieData mean CovalentRadius": 95.71428571428572,
                    "MagpieData avg_dev CovalentRadius": 42.44897959183673,
                    "MagpieData mode CovalentRadius": 66.0,
                    "MagpieData std_dev CovalentRadius": 73.53910524340094,
                    "MagpieData minimum Electronegativity": 1.5,
                    "MagpieData maximum Electronegativity": 3.44,
                    "MagpieData range Electronegativity": 1.94,
                    "MagpieData mean Electronegativity": 2.8857142857142857,
                    "MagpieData avg_dev Electronegativity": 0.7918367346938775,
                    "MagpieData mode Electronegativity": 3.44,
                    "MagpieData std_dev Electronegativity": 1.3717871555019021,
                    "MagpieData minimum NsValence": 2.0,
                    "MagpieData maximum NsValence": 2.0,
                    "MagpieData range NsValence": 0.0,
                    "MagpieData mean NsValence": 2.0,
                    "MagpieData avg_dev NsValence": 0.0,
                    "MagpieData mode NsValence": 2.0,
                    "MagpieData std_dev NsValence": 0.0,
                    "MagpieData minimum NpValence": 0.0,
                    "MagpieData maximum NpValence": 4.0,
                    "MagpieData range NpValence": 4.0,
                    "MagpieData mean NpValence": 2.857142857142857,
                    "MagpieData avg_dev NpValence": 1.6326530612244898,
                    "MagpieData mode NpValence": 4.0,
                    "MagpieData std_dev NpValence": 2.82842712474619,
                    "MagpieData minimum NdValence": 0.0,
                    "MagpieData maximum NdValence": 3.0,
                    "MagpieData range NdValence": 3.0,
                    "MagpieData mean NdValence": 0.8571428571428571,
                    "MagpieData avg_dev NdValence": 1.2244897959183674,
                    "MagpieData mode NdValence": 0.0,
                    "MagpieData std_dev NdValence": 2.1213203435596424,
                    "MagpieData minimum NfValence": 0.0,
                    "MagpieData maximum NfValence": 14.0,
                    "MagpieData range NfValence": 14.0,
                    "MagpieData mean NfValence": 4.0,
                    "MagpieData avg_dev NfValence": 5.7142857142857135,
                    "MagpieData mode NfValence": 0.0,
                    "MagpieData std_dev NfValence": 9.899494936611665,
                    "MagpieData minimum NValence": 6.0,
                    "MagpieData maximum NValence": 19.0,
                    "MagpieData range NValence": 13.0,
                    "MagpieData mean NValence": 9.714285714285714,
                    "MagpieData avg_dev NValence": 5.3061224489795915,
                    "MagpieData mode NValence": 6.0,
                    "MagpieData std_dev NValence": 9.192388155425117,
                    "MagpieData minimum NsUnfilled": 0.0,
                    "MagpieData maximum NsUnfilled": 0.0,
                    "MagpieData range NsUnfilled": 0.0,
                    "MagpieData mean NsUnfilled": 0.0,
                    "MagpieData avg_dev NsUnfilled": 0.0,
                    "MagpieData mode NsUnfilled": 0.0,
                    "MagpieData std_dev NsUnfilled": 0.0,
                    "MagpieData minimum NpUnfilled": 0.0,
                    "MagpieData maximum NpUnfilled": 2.0,
                    "MagpieData range NpUnfilled": 2.0,
                    "MagpieData mean NpUnfilled": 1.4285714285714286,
                    "MagpieData avg_dev NpUnfilled": 0.8163265306122449,
                    "MagpieData mode NpUnfilled": 2.0,
                    "MagpieData std_dev NpUnfilled": 1.414213562373095,
                    "MagpieData minimum NdUnfilled": 0.0,
                    "MagpieData maximum NdUnfilled": 7.0,
                    "MagpieData range NdUnfilled": 7.0,
                    "MagpieData mean NdUnfilled": 2.0,
                    "MagpieData avg_dev NdUnfilled": 2.8571428571428568,
                    "MagpieData mode NdUnfilled": 0.0,
                    "MagpieData std_dev NdUnfilled": 4.949747468305833,
                    "MagpieData minimum NfUnfilled": 0.0,
                    "MagpieData maximum NfUnfilled": 0.0,
                    "MagpieData range NfUnfilled": 0.0,
                    "MagpieData mean NfUnfilled": 0.0,
                    "MagpieData avg_dev NfUnfilled": 0.0,
                    "MagpieData mode NfUnfilled": 0.0,
                    "MagpieData std_dev NfUnfilled": 0.0,
                    "MagpieData minimum NUnfilled": 2.0,
                    "MagpieData maximum NUnfilled": 7.0,
                    "MagpieData range NUnfilled": 5.0,
                    "MagpieData mean NUnfilled": 3.428571428571429,
                    "MagpieData avg_dev NUnfilled": 2.0408163265306123,
                    "MagpieData mode NUnfilled": 2.0,
                    "MagpieData std_dev NUnfilled": 3.5355339059327373,
                    "MagpieData minimum GSvolume_pa": 9.105,
                    "MagpieData maximum GSvolume_pa": 18.12,
                    "MagpieData range GSvolume_pa": 9.015,
                    "MagpieData mean GSvolume_pa": 11.680714285714286,
                    "MagpieData avg_dev GSvolume_pa": 3.6795918367346943,
                    "MagpieData mode GSvolume_pa": 9.105,
                    "MagpieData std_dev GSvolume_pa": 6.374567632396726,
                    "MagpieData minimum GSbandgap": 0.0,
                    "MagpieData maximum GSbandgap": 0.0,
                    "MagpieData range GSbandgap": 0.0,
                    "MagpieData mean GSbandgap": 0.0,
                    "MagpieData avg_dev GSbandgap": 0.0,
                    "MagpieData mode GSbandgap": 0.0,
                    "MagpieData std_dev GSbandgap": 0.0,
                    "MagpieData minimum GSmagmom": 0.0,
                    "MagpieData maximum GSmagmom": 0.0,
                    "MagpieData range GSmagmom": 0.0,
                    "MagpieData mean GSmagmom": 0.0,
                    "MagpieData avg_dev GSmagmom": 0.0,
                    "MagpieData mode GSmagmom": 0.0,
                    "MagpieData std_dev GSmagmom": 0.0,
                    "MagpieData minimum SpaceGroupNumber": 12.0,
                    "MagpieData maximum SpaceGroupNumber": 229.0,
                    "MagpieData range SpaceGroupNumber": 217.0,
                    "MagpieData mean SpaceGroupNumber": 74.0,
                    "MagpieData avg_dev SpaceGroupNumber": 88.57142857142857,
                    "MagpieData mode SpaceGroupNumber": 12.0,
                    "MagpieData std_dev SpaceGroupNumber": 153.4421715174808
                }
            }
        }
    ],
    "test_operating_temperature_celsius": 26.25,
    "min_pH_when_testing": 3.0,
    "max_pH_when_testing": 10.0,
    "test_medium_electrolyte": [
        {
            "substance_name": "water",
            "substance_type": "small molecule",
            "substance_descriptors": {
                "CID": 962,
                "MolecularFormula": "H2O",
                "MolecularWeight": "18.015",
                "CanonicalSMILES": "O",
                "IsomericSMILES": "O",
                "InChI": "InChI=1S/H2O/h1H2",
                "InChIKey": "XLYOFNOQVPJJNP-UHFFFAOYSA-N",
                "IUPACName": "oxidane",
                "XLogP": -0.5,
                "ExactMass": "18.010564683",
                "MonoisotopicMass": "18.010564683",
                "TPSA": 1,
                "Complexity": 0,
                "Charge": 0,
                "HBondDonorCount": 1,
                "HBondAcceptorCount": 1,
                "RotatableBondCount": 0,
                "HeavyAtomCount": 1,
                "IsotopeAtomCount": 0,
                "AtomStereoCount": 0,
                "DefinedAtomStereoCount": 0,
                "UndefinedAtomStereoCount": 0,
                "BondStereoCount": 0,
                "DefinedBondStereoCount": 0,
                "UndefinedBondStereoCount": 0,
                "CovalentUnitCount": 1,
                "Volume3D": 14.7,
                "XStericQuadrupole3D": 0.49,
                "YStericQuadrupole3D": 0.49,
                "ZStericQuadrupole3D": 0.49,
                "FeatureAcceptorCount3D": 1,
                "FeatureDonorCount3D": 1,
                "FeatureAnionCount3D": 0,
                "FeatureCationCount3D": 0,
                "FeatureRingCount3D": 0,
                "FeatureHydrophobeCount3D": 0,
                "ConformerModelRMSD3D": 0.4,
                "EffectiveRotorCount3D": 0,
                "ConformerCount3D": 1,
                "Morgan_128": [
                    0,
                    0,
                    0,
                    0,
                    0,
                    0,
                    0,
                    0,
                    0,
                    0,
                    0,
                    0,
                    0,
                    0,
                    0,
                    0,
                    0,
                    0,
                    0,
                    0,
                    0,
                    0,
                    1,
                    0,
                    0,
                    0,
                    0,
                    0,
                    0,
                    0,
                    0,
                    0,
                    0,
                    0,
                    0,
                    0,
                    0,
                    0,
                    0,
                    0,
                    0,
                    0,
                    0,
                    0,
                    0,
                    0,
                    0,
                    0,
                    0,
                    0,
                    0,
                    0,
                    0,
                    0,
                    0,
                    0,
                    0,
                    0,
                    0,
                    0,
                    0,
                    0,
                    0,
                    0,
                    0,
                    0,
                    0,
                    0,
                    0,
                    0,
                    0,
                    0,
                    0,
                    0,
                    0,
                    0,
                    0,
                    0,
                    0,
                    0,
                    0,
                    0,
                    0,
                    0,
                    0,
                    0,
                    0,
                    0,
                    0,
                    0,
                    0,
                    0,
                    0,
                    0,
                    0,
                    0,
                    0,
                    0,
                    0,
                    0,
                    0,
                    0,
                    0,
                    0,
                    0,
                    0,
                    0,
                    0,
                    0,
                    0,
                    0,
                    0,
                    0,
                    0,
                    0,
                    0,
                    0,
                    0,
                    0,
                    0,
                    0,
                    0,
                    0,
                    0,
                    0,
                    0,
                    0,
                    0
                ]
            }
        }
    ],
    "LDL_ranking": 2.0,
    "UDL_ranking": 2.0,
    "LDL_category": "Very Low Detection (High Sensitivity)",
    "UDL_category": "Low UDL Range"
}