{
    "DOI": "10.1016/j.snb.2013.12.056",
    "sensor_type": "liquid",
    "detect_target": [
        {
            "substance_name": "na+",
            "substance_type": "small molecule",
            "substance_descriptors": {
                "CID": 923,
                "MolecularFormula": "Na+",
                "MolecularWeight": "22.9897693",
                "CanonicalSMILES": "[Na+]",
                "IsomericSMILES": "[Na+]",
                "InChI": "InChI=1S/Na/q+1",
                "InChIKey": "FKNQFGJONOIPTF-UHFFFAOYSA-N",
                "IUPACName": "sodium(1+)",
                "ExactMass": "22.98976928",
                "MonoisotopicMass": "22.98976928",
                "TPSA": 0,
                "Complexity": 0,
                "Charge": 1,
                "HBondDonorCount": 0,
                "HBondAcceptorCount": 0,
                "RotatableBondCount": 0,
                "HeavyAtomCount": 1,
                "IsotopeAtomCount": 0,
                "AtomStereoCount": 0,
                "DefinedAtomStereoCount": 0,
                "UndefinedAtomStereoCount": 0,
                "BondStereoCount": 0,
                "DefinedBondStereoCount": 0,
                "UndefinedBondStereoCount": 0,
                "CovalentUnitCount": 1,
                "ConformerCount3D": 0,
                "Morgan_128": [
                    0,
                    0,
                    0,
                    0,
                    0,
                    0,
                    0,
                    0,
                    0,
                    0,
                    0,
                    0,
                    0,
                    0,
                    0,
                    0,
                    0,
                    0,
                    0,
                    0,
                    0,
                    0,
                    0,
                    0,
                    0,
                    0,
                    0,
                    0,
                    0,
                    0,
                    0,
                    0,
                    0,
                    0,
                    0,
                    0,
                    0,
                    0,
                    0,
                    0,
                    0,
                    0,
                    0,
                    0,
                    0,
                    0,
                    0,
                    0,
                    0,
                    0,
                    0,
                    0,
                    0,
                    0,
                    0,
                    0,
                    0,
                    0,
                    0,
                    0,
                    0,
                    1,
                    0,
                    0,
                    0,
                    0,
                    0,
                    0,
                    0,
                    0,
                    0,
                    0,
                    0,
                    0,
                    0,
                    0,
                    0,
                    0,
                    0,
                    0,
                    0,
                    0,
                    0,
                    0,
                    0,
                    0,
                    0,
                    0,
                    0,
                    0,
                    0,
                    0,
                    0,
                    0,
                    0,
                    0,
                    0,
                    0,
                    0,
                    0,
                    0,
                    0,
                    0,
                    0,
                    0,
                    0,
                    0,
                    0,
                    0,
                    0,
                    0,
                    0,
                    0,
                    0,
                    0,
                    0,
                    0,
                    0,
                    0,
                    0,
                    0,
                    0,
                    0,
                    0,
                    0,
                    0,
                    0,
                    0
                ]
            }
        }
    ],
    "lower_detection_limit_log_ppm": -0.638272164,
    "upper_detection_limit_log_ppm": 3.361727836,
    "probe_material": [
        {
            "substance_name": "niobium pentoxide",
            "substance_type": "inorganic solid",
            "substance_descriptors": {
                "Number of Elements": 2,
                "Element Types": [
                    "O",
                    "Nb"
                ],
                "Number of Atoms in Unit Cell": 56,
                "Lattice Parameter a (\u00c5)": "28.51",
                "Lattice Parameter b (\u00c5)": "3.83",
                "Lattice Parameter c (\u00c5)": "17.48",
                "Lattice Angle alpha (degrees)": "90",
                "Lattice Angle beta (degrees)": "120.8",
                "Lattice Angle gamma (degrees)": "90",
                "Unit Cell Volume (\u00c5\u00b3)": 813.4186312404016,
                "Density (g/cm\u00b3)": 4.341061036091466,
                "Space Group Number": 12,
                "Band Gap (eV)": 1.9717,
                "Is Metallic (1/0)": 0,
                "Formation Energy per Atom (eV)": -3.0256257642857127,
                "Energy Above Hull (eV/atom)": 0.005506140765309198,
                "Energy per Atom (eV/atom)": -9.44904414892857,
                "Total Magnetization (\u03bcB)": 0.0,
                "Magnetic Ordering": "NM",
                "Bulk Modulus (GPa)": 157.98,
                "Shear Modulus (GPa)": 56.77,
                "Fermi Energy (eV)": 1.97783972,
                "Total Energy (eV)": -7.06772,
                "Crystal System": "monoclinic",
                "Magpie Descriptors": {
                    "MagpieData minimum Number": 8.0,
                    "MagpieData maximum Number": 41.0,
                    "MagpieData range Number": 33.0,
                    "MagpieData mean Number": 31.57142857142857,
                    "MagpieData avg_dev Number": 13.46938775510204,
                    "MagpieData mode Number": 41.0,
                    "MagpieData std_dev Number": 23.334523779156065,
                    "MagpieData minimum MendeleevNumber": 47.0,
                    "MagpieData maximum MendeleevNumber": 87.0,
                    "MagpieData range MendeleevNumber": 40.0,
                    "MagpieData mean MendeleevNumber": 58.42857142857142,
                    "MagpieData avg_dev MendeleevNumber": 16.326530612244895,
                    "MagpieData mode MendeleevNumber": 47.0,
                    "MagpieData std_dev MendeleevNumber": 28.2842712474619,
                    "MagpieData minimum AtomicWeight": 15.9994,
                    "MagpieData maximum AtomicWeight": 92.90638,
                    "MagpieData range AtomicWeight": 76.90698,
                    "MagpieData mean AtomicWeight": 70.93295714285713,
                    "MagpieData avg_dev AtomicWeight": 31.390604081632652,
                    "MagpieData mode AtomicWeight": 92.90638,
                    "MagpieData std_dev AtomicWeight": 54.381447078578184,
                    "MagpieData minimum MeltingT": 54.8,
                    "MagpieData maximum MeltingT": 2750.0,
                    "MagpieData range MeltingT": 2695.2,
                    "MagpieData mean MeltingT": 1979.942857142857,
                    "MagpieData avg_dev MeltingT": 1100.0816326530612,
                    "MagpieData mode MeltingT": 2750.0,
                    "MagpieData std_dev MeltingT": 1905.7941966539827,
                    "MagpieData minimum Column": 5.0,
                    "MagpieData maximum Column": 16.0,
                    "MagpieData range Column": 11.0,
                    "MagpieData mean Column": 8.142857142857142,
                    "MagpieData avg_dev Column": 4.489795918367347,
                    "MagpieData mode Column": 5.0,
                    "MagpieData std_dev Column": 7.7781745930520225,
                    "MagpieData minimum Row": 2.0,
                    "MagpieData maximum Row": 5.0,
                    "MagpieData range Row": 3.0,
                    "MagpieData mean Row": 4.142857142857143,
                    "MagpieData avg_dev Row": 1.2244897959183674,
                    "MagpieData mode Row": 5.0,
                    "MagpieData std_dev Row": 2.1213203435596424,
                    "MagpieData minimum CovalentRadius": 66.0,
                    "MagpieData maximum CovalentRadius": 164.0,
                    "MagpieData range CovalentRadius": 98.0,
                    "MagpieData mean CovalentRadius": 136.0,
                    "MagpieData avg_dev CovalentRadius": 40.0,
                    "MagpieData mode CovalentRadius": 164.0,
                    "MagpieData std_dev CovalentRadius": 69.29646455628165,
                    "MagpieData minimum Electronegativity": 1.6,
                    "MagpieData maximum Electronegativity": 3.44,
                    "MagpieData range Electronegativity": 1.8399999999999999,
                    "MagpieData mean Electronegativity": 2.125714285714286,
                    "MagpieData avg_dev Electronegativity": 0.7510204081632652,
                    "MagpieData mode Electronegativity": 1.6,
                    "MagpieData std_dev Electronegativity": 1.3010764773832473,
                    "MagpieData minimum NsValence": 1.0,
                    "MagpieData maximum NsValence": 2.0,
                    "MagpieData range NsValence": 1.0,
                    "MagpieData mean NsValence": 1.2857142857142856,
                    "MagpieData avg_dev NsValence": 0.4081632653061224,
                    "MagpieData mode NsValence": 1.0,
                    "MagpieData std_dev NsValence": 0.7071067811865475,
                    "MagpieData minimum NpValence": 0.0,
                    "MagpieData maximum NpValence": 4.0,
                    "MagpieData range NpValence": 4.0,
                    "MagpieData mean NpValence": 1.1428571428571428,
                    "MagpieData avg_dev NpValence": 1.6326530612244898,
                    "MagpieData mode NpValence": 0.0,
                    "MagpieData std_dev NpValence": 2.82842712474619,
                    "MagpieData minimum NdValence": 0.0,
                    "MagpieData maximum NdValence": 4.0,
                    "MagpieData range NdValence": 4.0,
                    "MagpieData mean NdValence": 2.857142857142857,
                    "MagpieData avg_dev NdValence": 1.6326530612244898,
                    "MagpieData mode NdValence": 4.0,
                    "MagpieData std_dev NdValence": 2.82842712474619,
                    "MagpieData minimum NfValence": 0.0,
                    "MagpieData maximum NfValence": 0.0,
                    "MagpieData range NfValence": 0.0,
                    "MagpieData mean NfValence": 0.0,
                    "MagpieData avg_dev NfValence": 0.0,
                    "MagpieData mode NfValence": 0.0,
                    "MagpieData std_dev NfValence": 0.0,
                    "MagpieData minimum NValence": 5.0,
                    "MagpieData maximum NValence": 6.0,
                    "MagpieData range NValence": 1.0,
                    "MagpieData mean NValence": 5.285714285714286,
                    "MagpieData avg_dev NValence": 0.4081632653061224,
                    "MagpieData mode NValence": 5.0,
                    "MagpieData std_dev NValence": 0.7071067811865475,
                    "MagpieData minimum NsUnfilled": 0.0,
                    "MagpieData maximum NsUnfilled": 1.0,
                    "MagpieData range NsUnfilled": 1.0,
                    "MagpieData mean NsUnfilled": 0.7142857142857143,
                    "MagpieData avg_dev NsUnfilled": 0.40816326530612246,
                    "MagpieData mode NsUnfilled": 1.0,
                    "MagpieData std_dev NsUnfilled": 0.7071067811865475,
                    "MagpieData minimum NpUnfilled": 0.0,
                    "MagpieData maximum NpUnfilled": 2.0,
                    "MagpieData range NpUnfilled": 2.0,
                    "MagpieData mean NpUnfilled": 0.5714285714285714,
                    "MagpieData avg_dev NpUnfilled": 0.8163265306122449,
                    "MagpieData mode NpUnfilled": 0.0,
                    "MagpieData std_dev NpUnfilled": 1.414213562373095,
                    "MagpieData minimum NdUnfilled": 0.0,
                    "MagpieData maximum NdUnfilled": 6.0,
                    "MagpieData range NdUnfilled": 6.0,
                    "MagpieData mean NdUnfilled": 4.285714285714286,
                    "MagpieData avg_dev NdUnfilled": 2.4489795918367347,
                    "MagpieData mode NdUnfilled": 6.0,
                    "MagpieData std_dev NdUnfilled": 4.242640687119285,
                    "MagpieData minimum NfUnfilled": 0.0,
                    "MagpieData maximum NfUnfilled": 0.0,
                    "MagpieData range NfUnfilled": 0.0,
                    "MagpieData mean NfUnfilled": 0.0,
                    "MagpieData avg_dev NfUnfilled": 0.0,
                    "MagpieData mode NfUnfilled": 0.0,
                    "MagpieData std_dev NfUnfilled": 0.0,
                    "MagpieData minimum NUnfilled": 2.0,
                    "MagpieData maximum NUnfilled": 7.0,
                    "MagpieData range NUnfilled": 5.0,
                    "MagpieData mean NUnfilled": 5.571428571428571,
                    "MagpieData avg_dev NUnfilled": 2.0408163265306123,
                    "MagpieData mode NUnfilled": 7.0,
                    "MagpieData std_dev NUnfilled": 3.5355339059327373,
                    "MagpieData minimum GSvolume_pa": 9.105,
                    "MagpieData maximum GSvolume_pa": 18.18,
                    "MagpieData range GSvolume_pa": 9.075,
                    "MagpieData mean GSvolume_pa": 15.587142857142858,
                    "MagpieData avg_dev GSvolume_pa": 3.7040816326530606,
                    "MagpieData mode GSvolume_pa": 18.18,
                    "MagpieData std_dev GSvolume_pa": 6.416994039267918,
                    "MagpieData minimum GSbandgap": 0.0,
                    "MagpieData maximum GSbandgap": 0.0,
                    "MagpieData range GSbandgap": 0.0,
                    "MagpieData mean GSbandgap": 0.0,
                    "MagpieData avg_dev GSbandgap": 0.0,
                    "MagpieData mode GSbandgap": 0.0,
                    "MagpieData std_dev GSbandgap": 0.0,
                    "MagpieData minimum GSmagmom": 0.0,
                    "MagpieData maximum GSmagmom": 0.0,
                    "MagpieData range GSmagmom": 0.0,
                    "MagpieData mean GSmagmom": 0.0,
                    "MagpieData avg_dev GSmagmom": 0.0,
                    "MagpieData mode GSmagmom": 0.0,
                    "MagpieData std_dev GSmagmom": 0.0,
                    "MagpieData minimum SpaceGroupNumber": 12.0,
                    "MagpieData maximum SpaceGroupNumber": 229.0,
                    "MagpieData range SpaceGroupNumber": 217.0,
                    "MagpieData mean SpaceGroupNumber": 167.0,
                    "MagpieData avg_dev SpaceGroupNumber": 88.57142857142857,
                    "MagpieData mode SpaceGroupNumber": 229.0,
                    "MagpieData std_dev SpaceGroupNumber": 153.4421715174808
                }
            }
        }
    ],
    "test_operating_temperature_celsius": 23.75,
    "min_pH_when_testing": 7.5,
    "max_pH_when_testing": 7.5,
    "test_medium_electrolyte": [
        {
            "substance_name": "water",
            "substance_type": "small molecule",
            "substance_descriptors": {
                "CID": 962,
                "MolecularFormula": "H2O",
                "MolecularWeight": "18.015",
                "CanonicalSMILES": "O",
                "IsomericSMILES": "O",
                "InChI": "InChI=1S/H2O/h1H2",
                "InChIKey": "XLYOFNOQVPJJNP-UHFFFAOYSA-N",
                "IUPACName": "oxidane",
                "XLogP": -0.5,
                "ExactMass": "18.010564683",
                "MonoisotopicMass": "18.010564683",
                "TPSA": 1,
                "Complexity": 0,
                "Charge": 0,
                "HBondDonorCount": 1,
                "HBondAcceptorCount": 1,
                "RotatableBondCount": 0,
                "HeavyAtomCount": 1,
                "IsotopeAtomCount": 0,
                "AtomStereoCount": 0,
                "DefinedAtomStereoCount": 0,
                "UndefinedAtomStereoCount": 0,
                "BondStereoCount": 0,
                "DefinedBondStereoCount": 0,
                "UndefinedBondStereoCount": 0,
                "CovalentUnitCount": 1,
                "Volume3D": 14.7,
                "XStericQuadrupole3D": 0.49,
                "YStericQuadrupole3D": 0.49,
                "ZStericQuadrupole3D": 0.49,
                "FeatureAcceptorCount3D": 1,
                "FeatureDonorCount3D": 1,
                "FeatureAnionCount3D": 0,
                "FeatureCationCount3D": 0,
                "FeatureRingCount3D": 0,
                "FeatureHydrophobeCount3D": 0,
                "ConformerModelRMSD3D": 0.4,
                "EffectiveRotorCount3D": 0,
                "ConformerCount3D": 1,
                "Morgan_128": [
                    0,
                    0,
                    0,
                    0,
                    0,
                    0,
                    0,
                    0,
                    0,
                    0,
                    0,
                    0,
                    0,
                    0,
                    0,
                    0,
                    0,
                    0,
                    0,
                    0,
                    0,
                    0,
                    1,
                    0,
                    0,
                    0,
                    0,
                    0,
                    0,
                    0,
                    0,
                    0,
                    0,
                    0,
                    0,
                    0,
                    0,
                    0,
                    0,
                    0,
                    0,
                    0,
                    0,
                    0,
                    0,
                    0,
                    0,
                    0,
                    0,
                    0,
                    0,
                    0,
                    0,
                    0,
                    0,
                    0,
                    0,
                    0,
                    0,
                    0,
                    0,
                    0,
                    0,
                    0,
                    0,
                    0,
                    0,
                    0,
                    0,
                    0,
                    0,
                    0,
                    0,
                    0,
                    0,
                    0,
                    0,
                    0,
                    0,
                    0,
                    0,
                    0,
                    0,
                    0,
                    0,
                    0,
                    0,
                    0,
                    0,
                    0,
                    0,
                    0,
                    0,
                    0,
                    0,
                    0,
                    0,
                    0,
                    0,
                    0,
                    0,
                    0,
                    0,
                    0,
                    0,
                    0,
                    0,
                    0,
                    0,
                    0,
                    0,
                    0,
                    0,
                    0,
                    0,
                    0,
                    0,
                    0,
                    0,
                    0,
                    0,
                    0,
                    0,
                    0,
                    0,
                    0,
                    0,
                    0
                ]
            }
        }
    ],
    "LDL_ranking": 1.0,
    "UDL_ranking": 1.0,
    "LDL_category": "High Detection (Lower Sensitivity)",
    "UDL_category": "High UDL Range"
}