{
    "DOI": "10.1021/acsanm.9b01133",
    "sensor_type": "gas",
    "detect_target": [
        {
            "substance_name": "nitrogen dioxide",
            "substance_type": "small molecule",
            "substance_descriptors": {
                "CID": 3032552,
                "MolecularFormula": "NO2",
                "MolecularWeight": "46.006",
                "CanonicalSMILES": "N(=O)[O]",
                "IsomericSMILES": "N(=O)[O]",
                "InChI": "InChI=1S/NO2/c2-1-3",
                "InChIKey": "JCXJVPUVTGWSNB-UHFFFAOYSA-N",
                "XLogP": -0.3,
                "ExactMass": "45.992903243",
                "MonoisotopicMass": "45.992903243",
                "TPSA": 30.4,
                "Complexity": 7,
                "Charge": 0,
                "HBondDonorCount": 0,
                "HBondAcceptorCount": 2,
                "RotatableBondCount": 0,
                "HeavyAtomCount": 3,
                "IsotopeAtomCount": 0,
                "AtomStereoCount": 0,
                "DefinedAtomStereoCount": 0,
                "UndefinedAtomStereoCount": 0,
                "BondStereoCount": 0,
                "DefinedBondStereoCount": 0,
                "UndefinedBondStereoCount": 0,
                "CovalentUnitCount": 1,
                "ConformerCount3D": 0,
                "Morgan_128": [
                    0,
                    0,
                    0,
                    0,
                    0,
                    0,
                    0,
                    0,
                    0,
                    0,
                    1,
                    0,
                    1,
                    0,
                    0,
                    0,
                    0,
                    0,
                    0,
                    0,
                    0,
                    0,
                    0,
                    0,
                    0,
                    0,
                    0,
                    0,
                    0,
                    0,
                    0,
                    0,
                    0,
                    0,
                    0,
                    0,
                    0,
                    0,
                    0,
                    0,
                    0,
                    0,
                    0,
                    0,
                    0,
                    0,
                    0,
                    0,
                    0,
                    0,
                    0,
                    0,
                    1,
                    0,
                    0,
                    0,
                    0,
                    0,
                    0,
                    0,
                    0,
                    0,
                    0,
                    0,
                    0,
                    0,
                    0,
                    0,
                    0,
                    0,
                    0,
                    0,
                    0,
                    0,
                    0,
                    0,
                    0,
                    0,
                    0,
                    0,
                    0,
                    0,
                    0,
                    1,
                    0,
                    1,
                    0,
                    0,
                    0,
                    0,
                    0,
                    0,
                    0,
                    0,
                    0,
                    0,
                    0,
                    0,
                    0,
                    0,
                    0,
                    0,
                    0,
                    0,
                    0,
                    0,
                    0,
                    0,
                    0,
                    0,
                    0,
                    0,
                    0,
                    0,
                    0,
                    0,
                    0,
                    0,
                    0,
                    0,
                    0,
                    0,
                    0,
                    0,
                    0,
                    0,
                    0,
                    0
                ]
            }
        }
    ],
    "lower_detection_limit_log_ppm": 1.029383778,
    "upper_detection_limit_log_ppm": null,
    "probe_material": [
        {
            "substance_name": "gallium sulfide",
            "substance_type": "inorganic solid",
            "substance_descriptors": {
                "Number of Elements": 2,
                "Element Types": [
                    "S",
                    "Ga"
                ],
                "Number of Atoms in Unit Cell": 8,
                "Lattice Parameter a (\u00c5)": "3.585",
                "Lattice Parameter b (\u00c5)": "3.585",
                "Lattice Parameter c (\u00c5)": "15.5",
                "Lattice Angle alpha (degrees)": "90",
                "Lattice Angle beta (degrees)": "90",
                "Lattice Angle gamma (degrees)": "120",
                "Unit Cell Volume (\u00c5\u00b3)": 179.0698300424525,
                "Density (g/cm\u00b3)": 3.7755762759368254,
                "Space Group Number": 194,
                "Band Gap (eV)": 2.0036,
                "Is Metallic (1/0)": 0,
                "Formation Energy per Atom (eV)": -0.7637378176562493,
                "Energy Above Hull (eV/atom)": 0.0,
                "Energy per Atom (eV/atom)": -10.50262533375,
                "Total Magnetization (\u03bcB)": 0.0,
                "Magnetic Ordering": "NM",
                "Bulk Modulus (GPa)": 18.273,
                "Shear Modulus (GPa)": 12.041,
                "Fermi Energy (eV)": 1.57488932,
                "Total Energy (eV)": -1.66527,
                "Crystal System": "hexagonal",
                "Magpie Descriptors": {
                    "MagpieData minimum Number": 16.0,
                    "MagpieData maximum Number": 31.0,
                    "MagpieData range Number": 15.0,
                    "MagpieData mean Number": 23.5,
                    "MagpieData avg_dev Number": 7.5,
                    "MagpieData mode Number": 16.0,
                    "MagpieData std_dev Number": 10.606601717798213,
                    "MagpieData minimum MendeleevNumber": 74.0,
                    "MagpieData maximum MendeleevNumber": 88.0,
                    "MagpieData range MendeleevNumber": 14.0,
                    "MagpieData mean MendeleevNumber": 81.0,
                    "MagpieData avg_dev MendeleevNumber": 7.0,
                    "MagpieData mode MendeleevNumber": 74.0,
                    "MagpieData std_dev MendeleevNumber": 9.899494936611665,
                    "MagpieData minimum AtomicWeight": 32.065,
                    "MagpieData maximum AtomicWeight": 69.723,
                    "MagpieData range AtomicWeight": 37.658,
                    "MagpieData mean AtomicWeight": 50.894,
                    "MagpieData avg_dev AtomicWeight": 18.829,
                    "MagpieData mode AtomicWeight": 32.065,
                    "MagpieData std_dev AtomicWeight": 26.628227165923008,
                    "MagpieData minimum MeltingT": 302.91,
                    "MagpieData maximum MeltingT": 388.36,
                    "MagpieData range MeltingT": 85.44999999999999,
                    "MagpieData mean MeltingT": 345.635,
                    "MagpieData avg_dev MeltingT": 42.724999999999994,
                    "MagpieData mode MeltingT": 302.91,
                    "MagpieData std_dev MeltingT": 60.422274452390475,
                    "MagpieData minimum Column": 13.0,
                    "MagpieData maximum Column": 16.0,
                    "MagpieData range Column": 3.0,
                    "MagpieData mean Column": 14.5,
                    "MagpieData avg_dev Column": 1.5,
                    "MagpieData mode Column": 13.0,
                    "MagpieData std_dev Column": 2.1213203435596424,
                    "MagpieData minimum Row": 3.0,
                    "MagpieData maximum Row": 4.0,
                    "MagpieData range Row": 1.0,
                    "MagpieData mean Row": 3.5,
                    "MagpieData avg_dev Row": 0.5,
                    "MagpieData mode Row": 3.0,
                    "MagpieData std_dev Row": 0.7071067811865476,
                    "MagpieData minimum CovalentRadius": 105.0,
                    "MagpieData maximum CovalentRadius": 122.0,
                    "MagpieData range CovalentRadius": 17.0,
                    "MagpieData mean CovalentRadius": 113.5,
                    "MagpieData avg_dev CovalentRadius": 8.5,
                    "MagpieData mode CovalentRadius": 105.0,
                    "MagpieData std_dev CovalentRadius": 12.020815280171307,
                    "MagpieData minimum Electronegativity": 1.81,
                    "MagpieData maximum Electronegativity": 2.58,
                    "MagpieData range Electronegativity": 0.77,
                    "MagpieData mean Electronegativity": 2.1950000000000003,
                    "MagpieData avg_dev Electronegativity": 0.385,
                    "MagpieData mode Electronegativity": 1.81,
                    "MagpieData std_dev Electronegativity": 0.5444722215136416,
                    "MagpieData minimum NsValence": 2.0,
                    "MagpieData maximum NsValence": 2.0,
                    "MagpieData range NsValence": 0.0,
                    "MagpieData mean NsValence": 2.0,
                    "MagpieData avg_dev NsValence": 0.0,
                    "MagpieData mode NsValence": 2.0,
                    "MagpieData std_dev NsValence": 0.0,
                    "MagpieData minimum NpValence": 1.0,
                    "MagpieData maximum NpValence": 4.0,
                    "MagpieData range NpValence": 3.0,
                    "MagpieData mean NpValence": 2.5,
                    "MagpieData avg_dev NpValence": 1.5,
                    "MagpieData mode NpValence": 1.0,
                    "MagpieData std_dev NpValence": 2.1213203435596424,
                    "MagpieData minimum NdValence": 0.0,
                    "MagpieData maximum NdValence": 10.0,
                    "MagpieData range NdValence": 10.0,
                    "MagpieData mean NdValence": 5.0,
                    "MagpieData avg_dev NdValence": 5.0,
                    "MagpieData mode NdValence": 0.0,
                    "MagpieData std_dev NdValence": 7.0710678118654755,
                    "MagpieData minimum NfValence": 0.0,
                    "MagpieData maximum NfValence": 0.0,
                    "MagpieData range NfValence": 0.0,
                    "MagpieData mean NfValence": 0.0,
                    "MagpieData avg_dev NfValence": 0.0,
                    "MagpieData mode NfValence": 0.0,
                    "MagpieData std_dev NfValence": 0.0,
                    "MagpieData minimum NValence": 6.0,
                    "MagpieData maximum NValence": 13.0,
                    "MagpieData range NValence": 7.0,
                    "MagpieData mean NValence": 9.5,
                    "MagpieData avg_dev NValence": 3.5,
                    "MagpieData mode NValence": 6.0,
                    "MagpieData std_dev NValence": 4.949747468305833,
                    "MagpieData minimum NsUnfilled": 0.0,
                    "MagpieData maximum NsUnfilled": 0.0,
                    "MagpieData range NsUnfilled": 0.0,
                    "MagpieData mean NsUnfilled": 0.0,
                    "MagpieData avg_dev NsUnfilled": 0.0,
                    "MagpieData mode NsUnfilled": 0.0,
                    "MagpieData std_dev NsUnfilled": 0.0,
                    "MagpieData minimum NpUnfilled": 2.0,
                    "MagpieData maximum NpUnfilled": 5.0,
                    "MagpieData range NpUnfilled": 3.0,
                    "MagpieData mean NpUnfilled": 3.5,
                    "MagpieData avg_dev NpUnfilled": 1.5,
                    "MagpieData mode NpUnfilled": 2.0,
                    "MagpieData std_dev NpUnfilled": 2.1213203435596424,
                    "MagpieData minimum NdUnfilled": 0.0,
                    "MagpieData maximum NdUnfilled": 0.0,
                    "MagpieData range NdUnfilled": 0.0,
                    "MagpieData mean NdUnfilled": 0.0,
                    "MagpieData avg_dev NdUnfilled": 0.0,
                    "MagpieData mode NdUnfilled": 0.0,
                    "MagpieData std_dev NdUnfilled": 0.0,
                    "MagpieData minimum NfUnfilled": 0.0,
                    "MagpieData maximum NfUnfilled": 0.0,
                    "MagpieData range NfUnfilled": 0.0,
                    "MagpieData mean NfUnfilled": 0.0,
                    "MagpieData avg_dev NfUnfilled": 0.0,
                    "MagpieData mode NfUnfilled": 0.0,
                    "MagpieData std_dev NfUnfilled": 0.0,
                    "MagpieData minimum NUnfilled": 2.0,
                    "MagpieData maximum NUnfilled": 5.0,
                    "MagpieData range NUnfilled": 3.0,
                    "MagpieData mean NUnfilled": 3.5,
                    "MagpieData avg_dev NUnfilled": 1.5,
                    "MagpieData mode NUnfilled": 2.0,
                    "MagpieData std_dev NUnfilled": 2.1213203435596424,
                    "MagpieData minimum GSvolume_pa": 18.8575,
                    "MagpieData maximum GSvolume_pa": 25.786875,
                    "MagpieData range GSvolume_pa": 6.929374999999997,
                    "MagpieData mean GSvolume_pa": 22.3221875,
                    "MagpieData avg_dev GSvolume_pa": 3.4646874999999984,
                    "MagpieData mode GSvolume_pa": 18.8575,
                    "MagpieData std_dev GSvolume_pa": 4.899808051884531,
                    "MagpieData minimum GSbandgap": 0.0,
                    "MagpieData maximum GSbandgap": 2.202,
                    "MagpieData range GSbandgap": 2.202,
                    "MagpieData mean GSbandgap": 1.101,
                    "MagpieData avg_dev GSbandgap": 1.101,
                    "MagpieData mode GSbandgap": 0.0,
                    "MagpieData std_dev GSbandgap": 1.5570491321727775,
                    "MagpieData minimum GSmagmom": 0.0,
                    "MagpieData maximum GSmagmom": 0.0,
                    "MagpieData range GSmagmom": 0.0,
                    "MagpieData mean GSmagmom": 0.0,
                    "MagpieData avg_dev GSmagmom": 0.0,
                    "MagpieData mode GSmagmom": 0.0,
                    "MagpieData std_dev GSmagmom": 0.0,
                    "MagpieData minimum SpaceGroupNumber": 64.0,
                    "MagpieData maximum SpaceGroupNumber": 70.0,
                    "MagpieData range SpaceGroupNumber": 6.0,
                    "MagpieData mean SpaceGroupNumber": 67.0,
                    "MagpieData avg_dev SpaceGroupNumber": 3.0,
                    "MagpieData mode SpaceGroupNumber": 64.0,
                    "MagpieData std_dev SpaceGroupNumber": 4.242640687119285
                }
            }
        }
    ],
    "test_operating_temperature_celsius": 165.0,
    "min_pH_when_testing": -1.0,
    "max_pH_when_testing": -1.0,
    "test_medium_electrolyte": [
        {
            "substance_name": "nitrogen",
            "substance_type": "small molecule",
            "substance_descriptors": {
                "CID": 947,
                "MolecularFormula": "N2",
                "MolecularWeight": "28.014",
                "CanonicalSMILES": "N#N",
                "IsomericSMILES": "N#N",
                "InChI": "InChI=1S/N2/c1-2",
                "InChIKey": "IJGRMHOSHXDMSA-UHFFFAOYSA-N",
                "IUPACName": "molecular nitrogen",
                "XLogP": 0.1,
                "ExactMass": "28.006148008",
                "MonoisotopicMass": "28.006148008",
                "TPSA": 47.6,
                "Complexity": 8,
                "Charge": 0,
                "HBondDonorCount": 0,
                "HBondAcceptorCount": 2,
                "RotatableBondCount": 0,
                "HeavyAtomCount": 2,
                "IsotopeAtomCount": 0,
                "AtomStereoCount": 0,
                "DefinedAtomStereoCount": 0,
                "UndefinedAtomStereoCount": 0,
                "BondStereoCount": 0,
                "DefinedBondStereoCount": 0,
                "UndefinedBondStereoCount": 0,
                "CovalentUnitCount": 1,
                "Volume3D": 23.1,
                "XStericQuadrupole3D": 0.82,
                "YStericQuadrupole3D": 0.51,
                "ZStericQuadrupole3D": 0.51,
                "FeatureAcceptorCount3D": 0,
                "FeatureDonorCount3D": 0,
                "FeatureAnionCount3D": 0,
                "FeatureCationCount3D": 0,
                "FeatureRingCount3D": 0,
                "FeatureHydrophobeCount3D": 0,
                "ConformerModelRMSD3D": 0.4,
                "EffectiveRotorCount3D": 0,
                "ConformerCount3D": 1,
                "Morgan_128": [
                    0,
                    0,
                    0,
                    0,
                    0,
                    0,
                    0,
                    0,
                    0,
                    0,
                    0,
                    0,
                    0,
                    0,
                    0,
                    0,
                    0,
                    0,
                    0,
                    0,
                    0,
                    0,
                    0,
                    0,
                    0,
                    0,
                    0,
                    0,
                    0,
                    0,
                    0,
                    0,
                    0,
                    0,
                    0,
                    0,
                    0,
                    0,
                    0,
                    0,
                    0,
                    0,
                    0,
                    0,
                    0,
                    0,
                    0,
                    0,
                    0,
                    0,
                    0,
                    0,
                    0,
                    0,
                    0,
                    0,
                    0,
                    0,
                    0,
                    0,
                    0,
                    0,
                    0,
                    0,
                    0,
                    0,
                    0,
                    0,
                    0,
                    0,
                    0,
                    0,
                    0,
                    0,
                    0,
                    0,
                    1,
                    0,
                    0,
                    0,
                    0,
                    0,
                    0,
                    0,
                    0,
                    0,
                    0,
                    0,
                    0,
                    0,
                    0,
                    0,
                    0,
                    0,
                    0,
                    0,
                    0,
                    0,
                    0,
                    0,
                    0,
                    0,
                    0,
                    0,
                    1,
                    0,
                    0,
                    0,
                    0,
                    0,
                    0,
                    0,
                    0,
                    0,
                    0,
                    0,
                    0,
                    0,
                    0,
                    0,
                    0,
                    0,
                    0,
                    0,
                    0,
                    0,
                    0,
                    0
                ]
            }
        }
    ],
    "LDL_ranking": 1.0,
    "UDL_ranking": null,
    "LDL_category": "Very High Detection (Low Sensitivity)",
    "UDL_category": null
}