{
    "DOI": "10.1109/JSEN.2009.2037016",
    "sensor_type": "liquid",
    "detect_target": [
        {
            "substance_name": "h+",
            "substance_type": "small molecule",
            "substance_descriptors": {
                "CID": 1038,
                "MolecularFormula": "H+",
                "MolecularWeight": "1.0080",
                "CanonicalSMILES": "[H+]",
                "IsomericSMILES": "[H+]",
                "InChI": "InChI=1S/p+1",
                "InChIKey": "GPRLSGONYQIRFK-UHFFFAOYSA-N",
                "IUPACName": "hydron",
                "XLogP": 0,
                "ExactMass": "1.0078250319",
                "MonoisotopicMass": "1.0078250319",
                "TPSA": 0,
                "Complexity": 0,
                "Charge": 1,
                "HBondDonorCount": 1,
                "HBondAcceptorCount": 0,
                "RotatableBondCount": 0,
                "HeavyAtomCount": 0,
                "IsotopeAtomCount": 0,
                "AtomStereoCount": 0,
                "DefinedAtomStereoCount": 0,
                "UndefinedAtomStereoCount": 0,
                "BondStereoCount": 0,
                "DefinedBondStereoCount": 0,
                "UndefinedBondStereoCount": 0,
                "CovalentUnitCount": 1,
                "ConformerCount3D": 0,
                "Morgan_128": [
                    0,
                    0,
                    0,
                    0,
                    0,
                    0,
                    0,
                    0,
                    0,
                    0,
                    0,
                    0,
                    0,
                    0,
                    0,
                    0,
                    0,
                    0,
                    0,
                    0,
                    0,
                    0,
                    0,
                    0,
                    0,
                    0,
                    0,
                    0,
                    0,
                    0,
                    0,
                    0,
                    0,
                    0,
                    0,
                    0,
                    0,
                    0,
                    0,
                    0,
                    1,
                    0,
                    0,
                    0,
                    0,
                    0,
                    0,
                    0,
                    0,
                    0,
                    0,
                    0,
                    0,
                    0,
                    0,
                    0,
                    0,
                    0,
                    0,
                    0,
                    0,
                    0,
                    0,
                    0,
                    0,
                    0,
                    0,
                    0,
                    0,
                    0,
                    0,
                    0,
                    0,
                    0,
                    0,
                    0,
                    0,
                    0,
                    0,
                    0,
                    0,
                    0,
                    0,
                    0,
                    0,
                    0,
                    0,
                    0,
                    0,
                    0,
                    0,
                    0,
                    0,
                    0,
                    0,
                    0,
                    0,
                    0,
                    0,
                    0,
                    0,
                    0,
                    0,
                    0,
                    0,
                    0,
                    0,
                    0,
                    0,
                    0,
                    0,
                    0,
                    0,
                    0,
                    0,
                    0,
                    0,
                    0,
                    0,
                    0,
                    0,
                    0,
                    0,
                    0,
                    0,
                    0,
                    0,
                    0
                ]
            }
        }
    ],
    "lower_detection_limit_log_ppm": -9.0,
    "upper_detection_limit_log_ppm": 1.0,
    "probe_material": [
        {
            "substance_name": "thulium oxide",
            "substance_type": "inorganic solid",
            "substance_descriptors": {
                "Number of Elements": 2,
                "Element Types": [
                    "O",
                    "Tm"
                ],
                "Number of Atoms in Unit Cell": 40,
                "Lattice Parameter a (\u00c5)": "10.4908",
                "Lattice Parameter b (\u00c5)": "10.4908",
                "Lattice Parameter c (\u00c5)": "10.4908",
                "Lattice Angle alpha (degrees)": "90",
                "Lattice Angle beta (degrees)": "90",
                "Lattice Angle gamma (degrees)": "90",
                "Unit Cell Volume (\u00c5\u00b3)": 560.1576721567083,
                "Density (g/cm\u00b3)": 9.150946297529503,
                "Space Group Number": 206,
                "Band Gap (eV)": 3.9787,
                "Is Metallic (1/0)": 0,
                "Formation Energy per Atom (eV)": -4.03254097425,
                "Energy Above Hull (eV/atom)": 0.0,
                "Energy per Atom (eV/atom)": -21.65735060525,
                "Total Magnetization (\u03bcB)": 0.0,
                "Magnetic Ordering": "NM",
                "Bulk Modulus (GPa)": -99999,
                "Shear Modulus (GPa)": -99999,
                "Fermi Energy (eV)": 1.27390383,
                "Total Energy (eV)": -6.56745,
                "Crystal System": "cubic",
                "Magpie Descriptors": {
                    "MagpieData minimum Number": 8.0,
                    "MagpieData maximum Number": 69.0,
                    "MagpieData range Number": 61.0,
                    "MagpieData mean Number": 44.6,
                    "MagpieData avg_dev Number": 29.28,
                    "MagpieData mode Number": 69.0,
                    "MagpieData std_dev Number": 43.1335136523794,
                    "MagpieData minimum MendeleevNumber": 37.0,
                    "MagpieData maximum MendeleevNumber": 87.0,
                    "MagpieData range MendeleevNumber": 50.0,
                    "MagpieData mean MendeleevNumber": 57.0,
                    "MagpieData avg_dev MendeleevNumber": 24.0,
                    "MagpieData mode MendeleevNumber": 37.0,
                    "MagpieData std_dev MendeleevNumber": 35.35533905932738,
                    "MagpieData minimum AtomicWeight": 15.9994,
                    "MagpieData maximum AtomicWeight": 168.93421,
                    "MagpieData range AtomicWeight": 152.93481,
                    "MagpieData mean AtomicWeight": 107.76028600000001,
                    "MagpieData avg_dev AtomicWeight": 73.4087088,
                    "MagpieData mode AtomicWeight": 168.93421,
                    "MagpieData std_dev AtomicWeight": 108.14124123047624,
                    "MagpieData minimum MeltingT": 54.8,
                    "MagpieData maximum MeltingT": 1818.0,
                    "MagpieData range MeltingT": 1763.2,
                    "MagpieData mean MeltingT": 1112.72,
                    "MagpieData avg_dev MeltingT": 846.336,
                    "MagpieData mode MeltingT": 1818.0,
                    "MagpieData std_dev MeltingT": 1246.7706765881208,
                    "MagpieData minimum Column": 3.0,
                    "MagpieData maximum Column": 16.0,
                    "MagpieData range Column": 13.0,
                    "MagpieData mean Column": 8.2,
                    "MagpieData avg_dev Column": 6.24,
                    "MagpieData mode Column": 3.0,
                    "MagpieData std_dev Column": 9.19238815542512,
                    "MagpieData minimum Row": 2.0,
                    "MagpieData maximum Row": 6.0,
                    "MagpieData range Row": 4.0,
                    "MagpieData mean Row": 4.3999999999999995,
                    "MagpieData avg_dev Row": 1.9200000000000002,
                    "MagpieData mode Row": 6.0,
                    "MagpieData std_dev Row": 2.8284271247461903,
                    "MagpieData minimum CovalentRadius": 66.0,
                    "MagpieData maximum CovalentRadius": 190.0,
                    "MagpieData range CovalentRadius": 124.0,
                    "MagpieData mean CovalentRadius": 140.4,
                    "MagpieData avg_dev CovalentRadius": 59.519999999999996,
                    "MagpieData mode CovalentRadius": 190.0,
                    "MagpieData std_dev CovalentRadius": 87.68124086713189,
                    "MagpieData minimum Electronegativity": 1.25,
                    "MagpieData maximum Electronegativity": 3.44,
                    "MagpieData range Electronegativity": 2.19,
                    "MagpieData mean Electronegativity": 2.1260000000000003,
                    "MagpieData avg_dev Electronegativity": 1.0512000000000001,
                    "MagpieData mode Electronegativity": 1.25,
                    "MagpieData std_dev Electronegativity": 1.548563850798539,
                    "MagpieData minimum NsValence": 2.0,
                    "MagpieData maximum NsValence": 2.0,
                    "MagpieData range NsValence": 0.0,
                    "MagpieData mean NsValence": 2.0,
                    "MagpieData avg_dev NsValence": 0.0,
                    "MagpieData mode NsValence": 2.0,
                    "MagpieData std_dev NsValence": 0.0,
                    "MagpieData minimum NpValence": 0.0,
                    "MagpieData maximum NpValence": 4.0,
                    "MagpieData range NpValence": 4.0,
                    "MagpieData mean NpValence": 1.6,
                    "MagpieData avg_dev NpValence": 1.92,
                    "MagpieData mode NpValence": 0.0,
                    "MagpieData std_dev NpValence": 2.8284271247461903,
                    "MagpieData minimum NdValence": 0.0,
                    "MagpieData maximum NdValence": 0.0,
                    "MagpieData range NdValence": 0.0,
                    "MagpieData mean NdValence": 0.0,
                    "MagpieData avg_dev NdValence": 0.0,
                    "MagpieData mode NdValence": 0.0,
                    "MagpieData std_dev NdValence": 0.0,
                    "MagpieData minimum NfValence": 0.0,
                    "MagpieData maximum NfValence": 13.0,
                    "MagpieData range NfValence": 13.0,
                    "MagpieData mean NfValence": 7.8,
                    "MagpieData avg_dev NfValence": 6.24,
                    "MagpieData mode NfValence": 13.0,
                    "MagpieData std_dev NfValence": 9.19238815542512,
                    "MagpieData minimum NValence": 6.0,
                    "MagpieData maximum NValence": 15.0,
                    "MagpieData range NValence": 9.0,
                    "MagpieData mean NValence": 11.4,
                    "MagpieData avg_dev NValence": 4.32,
                    "MagpieData mode NValence": 15.0,
                    "MagpieData std_dev NValence": 6.363961030678928,
                    "MagpieData minimum NsUnfilled": 0.0,
                    "MagpieData maximum NsUnfilled": 0.0,
                    "MagpieData range NsUnfilled": 0.0,
                    "MagpieData mean NsUnfilled": 0.0,
                    "MagpieData avg_dev NsUnfilled": 0.0,
                    "MagpieData mode NsUnfilled": 0.0,
                    "MagpieData std_dev NsUnfilled": 0.0,
                    "MagpieData minimum NpUnfilled": 0.0,
                    "MagpieData maximum NpUnfilled": 2.0,
                    "MagpieData range NpUnfilled": 2.0,
                    "MagpieData mean NpUnfilled": 0.8,
                    "MagpieData avg_dev NpUnfilled": 0.96,
                    "MagpieData mode NpUnfilled": 0.0,
                    "MagpieData std_dev NpUnfilled": 1.4142135623730951,
                    "MagpieData minimum NdUnfilled": 0.0,
                    "MagpieData maximum NdUnfilled": 0.0,
                    "MagpieData range NdUnfilled": 0.0,
                    "MagpieData mean NdUnfilled": 0.0,
                    "MagpieData avg_dev NdUnfilled": 0.0,
                    "MagpieData mode NdUnfilled": 0.0,
                    "MagpieData std_dev NdUnfilled": 0.0,
                    "MagpieData minimum NfUnfilled": 0.0,
                    "MagpieData maximum NfUnfilled": 1.0,
                    "MagpieData range NfUnfilled": 1.0,
                    "MagpieData mean NfUnfilled": 0.6,
                    "MagpieData avg_dev NfUnfilled": 0.48,
                    "MagpieData mode NfUnfilled": 1.0,
                    "MagpieData std_dev NfUnfilled": 0.7071067811865476,
                    "MagpieData minimum NUnfilled": 1.0,
                    "MagpieData maximum NUnfilled": 2.0,
                    "MagpieData range NUnfilled": 1.0,
                    "MagpieData mean NUnfilled": 1.4,
                    "MagpieData avg_dev NUnfilled": 0.48,
                    "MagpieData mode NUnfilled": 1.0,
                    "MagpieData std_dev NUnfilled": 0.7071067811865476,
                    "MagpieData minimum GSvolume_pa": 9.105,
                    "MagpieData maximum GSvolume_pa": 29.78,
                    "MagpieData range GSvolume_pa": 20.675,
                    "MagpieData mean GSvolume_pa": 21.509999999999998,
                    "MagpieData avg_dev GSvolume_pa": 9.924000000000001,
                    "MagpieData mode GSvolume_pa": 29.78,
                    "MagpieData std_dev GSvolume_pa": 14.619432701031872,
                    "MagpieData minimum GSbandgap": 0.0,
                    "MagpieData maximum GSbandgap": 0.0,
                    "MagpieData range GSbandgap": 0.0,
                    "MagpieData mean GSbandgap": 0.0,
                    "MagpieData avg_dev GSbandgap": 0.0,
                    "MagpieData mode GSbandgap": 0.0,
                    "MagpieData std_dev GSbandgap": 0.0,
                    "MagpieData minimum GSmagmom": 0.0,
                    "MagpieData maximum GSmagmom": 0.0,
                    "MagpieData range GSmagmom": 0.0,
                    "MagpieData mean GSmagmom": 0.0,
                    "MagpieData avg_dev GSmagmom": 0.0,
                    "MagpieData mode GSmagmom": 0.0,
                    "MagpieData std_dev GSmagmom": 0.0,
                    "MagpieData minimum SpaceGroupNumber": 12.0,
                    "MagpieData maximum SpaceGroupNumber": 194.0,
                    "MagpieData range SpaceGroupNumber": 182.0,
                    "MagpieData mean SpaceGroupNumber": 121.19999999999999,
                    "MagpieData avg_dev SpaceGroupNumber": 87.36000000000001,
                    "MagpieData mode SpaceGroupNumber": 194.0,
                    "MagpieData std_dev SpaceGroupNumber": 128.69343417595164
                }
            }
        }
    ],
    "test_operating_temperature_celsius": 27.5,
    "min_pH_when_testing": 2.0,
    "max_pH_when_testing": 12.0,
    "test_medium_electrolyte": [
        {
            "substance_name": "water",
            "substance_type": "small molecule",
            "substance_descriptors": {
                "CID": 962,
                "MolecularFormula": "H2O",
                "MolecularWeight": "18.015",
                "CanonicalSMILES": "O",
                "IsomericSMILES": "O",
                "InChI": "InChI=1S/H2O/h1H2",
                "InChIKey": "XLYOFNOQVPJJNP-UHFFFAOYSA-N",
                "IUPACName": "oxidane",
                "XLogP": -0.5,
                "ExactMass": "18.010564683",
                "MonoisotopicMass": "18.010564683",
                "TPSA": 1,
                "Complexity": 0,
                "Charge": 0,
                "HBondDonorCount": 1,
                "HBondAcceptorCount": 1,
                "RotatableBondCount": 0,
                "HeavyAtomCount": 1,
                "IsotopeAtomCount": 0,
                "AtomStereoCount": 0,
                "DefinedAtomStereoCount": 0,
                "UndefinedAtomStereoCount": 0,
                "BondStereoCount": 0,
                "DefinedBondStereoCount": 0,
                "UndefinedBondStereoCount": 0,
                "CovalentUnitCount": 1,
                "Volume3D": 14.7,
                "XStericQuadrupole3D": 0.49,
                "YStericQuadrupole3D": 0.49,
                "ZStericQuadrupole3D": 0.49,
                "FeatureAcceptorCount3D": 1,
                "FeatureDonorCount3D": 1,
                "FeatureAnionCount3D": 0,
                "FeatureCationCount3D": 0,
                "FeatureRingCount3D": 0,
                "FeatureHydrophobeCount3D": 0,
                "ConformerModelRMSD3D": 0.4,
                "EffectiveRotorCount3D": 0,
                "ConformerCount3D": 1,
                "Morgan_128": [
                    0,
                    0,
                    0,
                    0,
                    0,
                    0,
                    0,
                    0,
                    0,
                    0,
                    0,
                    0,
                    0,
                    0,
                    0,
                    0,
                    0,
                    0,
                    0,
                    0,
                    0,
                    0,
                    1,
                    0,
                    0,
                    0,
                    0,
                    0,
                    0,
                    0,
                    0,
                    0,
                    0,
                    0,
                    0,
                    0,
                    0,
                    0,
                    0,
                    0,
                    0,
                    0,
                    0,
                    0,
                    0,
                    0,
                    0,
                    0,
                    0,
                    0,
                    0,
                    0,
                    0,
                    0,
                    0,
                    0,
                    0,
                    0,
                    0,
                    0,
                    0,
                    0,
                    0,
                    0,
                    0,
                    0,
                    0,
                    0,
                    0,
                    0,
                    0,
                    0,
                    0,
                    0,
                    0,
                    0,
                    0,
                    0,
                    0,
                    0,
                    0,
                    0,
                    0,
                    0,
                    0,
                    0,
                    0,
                    0,
                    0,
                    0,
                    0,
                    0,
                    0,
                    0,
                    0,
                    0,
                    0,
                    0,
                    0,
                    0,
                    0,
                    0,
                    0,
                    0,
                    0,
                    0,
                    0,
                    0,
                    0,
                    0,
                    0,
                    0,
                    0,
                    0,
                    0,
                    0,
                    0,
                    0,
                    0,
                    0,
                    0,
                    0,
                    0,
                    0,
                    0,
                    0,
                    0,
                    0
                ]
            }
        }
    ],
    "LDL_ranking": 1.0,
    "UDL_ranking": 1.0,
    "LDL_category": "Very Low Detection (High Sensitivity)",
    "UDL_category": "Moderate UDL Range"
}