{
    "DOI": "10.1063/1.4918988",
    "sensor_type": "liquid",
    "detect_target": [
        {
            "substance_name": "pb2+",
            "substance_type": "small molecule",
            "substance_descriptors": {
                "CID": 73212,
                "MolecularFormula": "Pb+2",
                "MolecularWeight": "207",
                "CanonicalSMILES": "[Pb+2]",
                "IsomericSMILES": "[Pb+2]",
                "InChI": "InChI=1S/Pb/q+2",
                "InChIKey": "RVPVRDXYQKGNMQ-UHFFFAOYSA-N",
                "IUPACName": "lead(2+)",
                "ExactMass": "207.97665",
                "MonoisotopicMass": "207.97665",
                "TPSA": 0,
                "Complexity": 0,
                "Charge": 2,
                "HBondDonorCount": 0,
                "HBondAcceptorCount": 0,
                "RotatableBondCount": 0,
                "HeavyAtomCount": 1,
                "IsotopeAtomCount": 0,
                "AtomStereoCount": 0,
                "DefinedAtomStereoCount": 0,
                "UndefinedAtomStereoCount": 0,
                "BondStereoCount": 0,
                "DefinedBondStereoCount": 0,
                "UndefinedBondStereoCount": 0,
                "CovalentUnitCount": 1,
                "ConformerCount3D": 0,
                "Morgan_128": [
                    0,
                    0,
                    0,
                    0,
                    0,
                    0,
                    0,
                    0,
                    0,
                    0,
                    0,
                    0,
                    0,
                    0,
                    0,
                    0,
                    0,
                    0,
                    0,
                    0,
                    0,
                    0,
                    0,
                    0,
                    0,
                    0,
                    0,
                    0,
                    0,
                    0,
                    0,
                    0,
                    0,
                    0,
                    0,
                    0,
                    0,
                    0,
                    0,
                    0,
                    0,
                    0,
                    0,
                    0,
                    0,
                    0,
                    0,
                    0,
                    0,
                    0,
                    0,
                    0,
                    0,
                    0,
                    0,
                    0,
                    0,
                    0,
                    0,
                    0,
                    0,
                    0,
                    0,
                    0,
                    0,
                    0,
                    0,
                    0,
                    0,
                    0,
                    0,
                    0,
                    0,
                    0,
                    0,
                    0,
                    0,
                    0,
                    0,
                    0,
                    0,
                    0,
                    0,
                    0,
                    0,
                    0,
                    0,
                    0,
                    0,
                    0,
                    0,
                    0,
                    0,
                    0,
                    0,
                    0,
                    0,
                    0,
                    0,
                    0,
                    0,
                    0,
                    0,
                    0,
                    0,
                    0,
                    0,
                    0,
                    0,
                    0,
                    0,
                    0,
                    0,
                    0,
                    0,
                    0,
                    0,
                    0,
                    0,
                    0,
                    0,
                    0,
                    0,
                    0,
                    0,
                    0,
                    1,
                    0
                ]
            }
        }
    ],
    "lower_detection_limit_log_ppm": -2.0,
    "upper_detection_limit_log_ppm": 2.0,
    "probe_material": [
        {
            "substance_name": "cadmium ionophore i",
            "substance_type": "small molecule",
            "substance_descriptors": {
                "CID": 615476,
                "MolecularFormula": "C22H44N2O2S2",
                "MolecularWeight": "432.7",
                "CanonicalSMILES": "CCCCN(CCCC)C(=S)COCCOCC(=S)N(CCCC)CCCC",
                "IsomericSMILES": "CCCCN(CCCC)C(=S)COCCOCC(=S)N(CCCC)CCCC",
                "InChI": "InChI=1S/C22H44N2O2S2/c1-5-9-13-23(14-10-6-2)21(27)19-25-17-18-26-20-22(28)24(15-11-7-3)16-12-8-4/h5-20H2,1-4H3",
                "InChIKey": "NKWPVGBRWCCVGT-UHFFFAOYSA-N",
                "IUPACName": "N,N-dibutyl-2-[2-[2-(dibutylamino)-2-sulfanylideneethoxy]ethoxy]ethanethioamide",
                "XLogP": 5.2,
                "ExactMass": "432.28442100",
                "MonoisotopicMass": "432.28442100",
                "TPSA": 89.1,
                "Complexity": 343,
                "Charge": 0,
                "HBondDonorCount": 0,
                "HBondAcceptorCount": 4,
                "RotatableBondCount": 19,
                "HeavyAtomCount": 28,
                "IsotopeAtomCount": 0,
                "AtomStereoCount": 0,
                "DefinedAtomStereoCount": 0,
                "UndefinedAtomStereoCount": 0,
                "BondStereoCount": 0,
                "DefinedBondStereoCount": 0,
                "UndefinedBondStereoCount": 0,
                "CovalentUnitCount": 1,
                "ConformerCount3D": 0,
                "Morgan_128": [
                    0,
                    0,
                    0,
                    0,
                    0,
                    0,
                    0,
                    0,
                    0,
                    0,
                    0,
                    0,
                    0,
                    1,
                    0,
                    0,
                    0,
                    0,
                    0,
                    1,
                    0,
                    0,
                    0,
                    0,
                    0,
                    0,
                    1,
                    0,
                    0,
                    0,
                    0,
                    1,
                    0,
                    1,
                    0,
                    0,
                    0,
                    0,
                    1,
                    1,
                    0,
                    0,
                    0,
                    0,
                    0,
                    0,
                    0,
                    0,
                    0,
                    0,
                    0,
                    0,
                    0,
                    0,
                    0,
                    1,
                    0,
                    0,
                    0,
                    0,
                    0,
                    0,
                    0,
                    0,
                    0,
                    0,
                    0,
                    0,
                    0,
                    0,
                    0,
                    0,
                    1,
                    0,
                    0,
                    0,
                    0,
                    0,
                    0,
                    1,
                    1,
                    0,
                    1,
                    0,
                    1,
                    0,
                    0,
                    0,
                    0,
                    0,
                    0,
                    0,
                    1,
                    0,
                    0,
                    0,
                    0,
                    1,
                    0,
                    0,
                    0,
                    0,
                    0,
                    0,
                    0,
                    0,
                    0,
                    0,
                    0,
                    0,
                    1,
                    0,
                    0,
                    1,
                    0,
                    0,
                    0,
                    0,
                    0,
                    1,
                    1,
                    0,
                    0,
                    1,
                    0,
                    0,
                    0,
                    0
                ]
            }
        },
        {
            "substance_name": "gold",
            "substance_type": "inorganic solid",
            "substance_descriptors": {
                "Number of Elements": 1,
                "Element Types": [
                    "Au"
                ],
                "Number of Atoms in Unit Cell": 1,
                "Lattice Parameter a (\u00c5)": "4.07",
                "Lattice Parameter b (\u00c5)": "4.07",
                "Lattice Parameter c (\u00c5)": "4.07",
                "Lattice Angle alpha (degrees)": "90",
                "Lattice Angle beta (degrees)": "90",
                "Lattice Angle gamma (degrees)": "90",
                "Unit Cell Volume (\u00c5\u00b3)": 18.14473805188449,
                "Density (g/cm\u00b3)": 18.02564918288778,
                "Space Group Number": 225,
                "Is Metallic (1/0)": 1,
                "Band Gap (eV)": 0.0,
                "Formation Energy per Atom (eV)": 0.0,
                "Energy Above Hull (eV/atom)": 0.0,
                "Energy per Atom (eV/atom)": -50.58496015,
                "Total Magnetization (\u03bcB)": 0.0,
                "Magnetic Ordering": "NM",
                "Bulk Modulus (GPa)": 134.195,
                "Shear Modulus (GPa)": -5.735,
                "Fermi Energy (eV)": 5.84744474,
                "Total Energy (eV)": -0.56995,
                "Crystal System": "cubic",
                "Magpie Descriptors": {
                    "MagpieData minimum Number": 79.0,
                    "MagpieData maximum Number": 79.0,
                    "MagpieData range Number": 0.0,
                    "MagpieData mean Number": 79.0,
                    "MagpieData avg_dev Number": 0.0,
                    "MagpieData mode Number": 79.0,
                    "MagpieData std_dev Number": 0,
                    "MagpieData minimum MendeleevNumber": 66.0,
                    "MagpieData maximum MendeleevNumber": 66.0,
                    "MagpieData range MendeleevNumber": 0.0,
                    "MagpieData mean MendeleevNumber": 66.0,
                    "MagpieData avg_dev MendeleevNumber": 0.0,
                    "MagpieData mode MendeleevNumber": 66.0,
                    "MagpieData std_dev MendeleevNumber": 0,
                    "MagpieData minimum AtomicWeight": 196.966569,
                    "MagpieData maximum AtomicWeight": 196.966569,
                    "MagpieData range AtomicWeight": 0.0,
                    "MagpieData mean AtomicWeight": 196.966569,
                    "MagpieData avg_dev AtomicWeight": 0.0,
                    "MagpieData mode AtomicWeight": 196.966569,
                    "MagpieData std_dev AtomicWeight": 0,
                    "MagpieData minimum MeltingT": 1337.33,
                    "MagpieData maximum MeltingT": 1337.33,
                    "MagpieData range MeltingT": 0.0,
                    "MagpieData mean MeltingT": 1337.33,
                    "MagpieData avg_dev MeltingT": 0.0,
                    "MagpieData mode MeltingT": 1337.33,
                    "MagpieData std_dev MeltingT": 0,
                    "MagpieData minimum Column": 11.0,
                    "MagpieData maximum Column": 11.0,
                    "MagpieData range Column": 0.0,
                    "MagpieData mean Column": 11.0,
                    "MagpieData avg_dev Column": 0.0,
                    "MagpieData mode Column": 11.0,
                    "MagpieData std_dev Column": 0,
                    "MagpieData minimum Row": 6.0,
                    "MagpieData maximum Row": 6.0,
                    "MagpieData range Row": 0.0,
                    "MagpieData mean Row": 6.0,
                    "MagpieData avg_dev Row": 0.0,
                    "MagpieData mode Row": 6.0,
                    "MagpieData std_dev Row": 0,
                    "MagpieData minimum CovalentRadius": 136.0,
                    "MagpieData maximum CovalentRadius": 136.0,
                    "MagpieData range CovalentRadius": 0.0,
                    "MagpieData mean CovalentRadius": 136.0,
                    "MagpieData avg_dev CovalentRadius": 0.0,
                    "MagpieData mode CovalentRadius": 136.0,
                    "MagpieData std_dev CovalentRadius": 0,
                    "MagpieData minimum Electronegativity": 2.54,
                    "MagpieData maximum Electronegativity": 2.54,
                    "MagpieData range Electronegativity": 0.0,
                    "MagpieData mean Electronegativity": 2.54,
                    "MagpieData avg_dev Electronegativity": 0.0,
                    "MagpieData mode Electronegativity": 2.54,
                    "MagpieData std_dev Electronegativity": 0,
                    "MagpieData minimum NsValence": 1.0,
                    "MagpieData maximum NsValence": 1.0,
                    "MagpieData range NsValence": 0.0,
                    "MagpieData mean NsValence": 1.0,
                    "MagpieData avg_dev NsValence": 0.0,
                    "MagpieData mode NsValence": 1.0,
                    "MagpieData std_dev NsValence": 0,
                    "MagpieData minimum NpValence": 0.0,
                    "MagpieData maximum NpValence": 0.0,
                    "MagpieData range NpValence": 0.0,
                    "MagpieData mean NpValence": 0.0,
                    "MagpieData avg_dev NpValence": 0.0,
                    "MagpieData mode NpValence": 0.0,
                    "MagpieData std_dev NpValence": 0,
                    "MagpieData minimum NdValence": 10.0,
                    "MagpieData maximum NdValence": 10.0,
                    "MagpieData range NdValence": 0.0,
                    "MagpieData mean NdValence": 10.0,
                    "MagpieData avg_dev NdValence": 0.0,
                    "MagpieData mode NdValence": 10.0,
                    "MagpieData std_dev NdValence": 0,
                    "MagpieData minimum NfValence": 14.0,
                    "MagpieData maximum NfValence": 14.0,
                    "MagpieData range NfValence": 0.0,
                    "MagpieData mean NfValence": 14.0,
                    "MagpieData avg_dev NfValence": 0.0,
                    "MagpieData mode NfValence": 14.0,
                    "MagpieData std_dev NfValence": 0,
                    "MagpieData minimum NValence": 25.0,
                    "MagpieData maximum NValence": 25.0,
                    "MagpieData range NValence": 0.0,
                    "MagpieData mean NValence": 25.0,
                    "MagpieData avg_dev NValence": 0.0,
                    "MagpieData mode NValence": 25.0,
                    "MagpieData std_dev NValence": 0,
                    "MagpieData minimum NsUnfilled": 1.0,
                    "MagpieData maximum NsUnfilled": 1.0,
                    "MagpieData range NsUnfilled": 0.0,
                    "MagpieData mean NsUnfilled": 1.0,
                    "MagpieData avg_dev NsUnfilled": 0.0,
                    "MagpieData mode NsUnfilled": 1.0,
                    "MagpieData std_dev NsUnfilled": 0,
                    "MagpieData minimum NpUnfilled": 0.0,
                    "MagpieData maximum NpUnfilled": 0.0,
                    "MagpieData range NpUnfilled": 0.0,
                    "MagpieData mean NpUnfilled": 0.0,
                    "MagpieData avg_dev NpUnfilled": 0.0,
                    "MagpieData mode NpUnfilled": 0.0,
                    "MagpieData std_dev NpUnfilled": 0,
                    "MagpieData minimum NdUnfilled": 0.0,
                    "MagpieData maximum NdUnfilled": 0.0,
                    "MagpieData range NdUnfilled": 0.0,
                    "MagpieData mean NdUnfilled": 0.0,
                    "MagpieData avg_dev NdUnfilled": 0.0,
                    "MagpieData mode NdUnfilled": 0.0,
                    "MagpieData std_dev NdUnfilled": 0,
                    "MagpieData minimum NfUnfilled": 0.0,
                    "MagpieData maximum NfUnfilled": 0.0,
                    "MagpieData range NfUnfilled": 0.0,
                    "MagpieData mean NfUnfilled": 0.0,
                    "MagpieData avg_dev NfUnfilled": 0.0,
                    "MagpieData mode NfUnfilled": 0.0,
                    "MagpieData std_dev NfUnfilled": 0,
                    "MagpieData minimum NUnfilled": 1.0,
                    "MagpieData maximum NUnfilled": 1.0,
                    "MagpieData range NUnfilled": 0.0,
                    "MagpieData mean NUnfilled": 1.0,
                    "MagpieData avg_dev NUnfilled": 0.0,
                    "MagpieData mode NUnfilled": 1.0,
                    "MagpieData std_dev NUnfilled": 0,
                    "MagpieData minimum GSvolume_pa": 16.7,
                    "MagpieData maximum GSvolume_pa": 16.7,
                    "MagpieData range GSvolume_pa": 0.0,
                    "MagpieData mean GSvolume_pa": 16.7,
                    "MagpieData avg_dev GSvolume_pa": 0.0,
                    "MagpieData mode GSvolume_pa": 16.7,
                    "MagpieData std_dev GSvolume_pa": 0,
                    "MagpieData minimum GSbandgap": 0.0,
                    "MagpieData maximum GSbandgap": 0.0,
                    "MagpieData range GSbandgap": 0.0,
                    "MagpieData mean GSbandgap": 0.0,
                    "MagpieData avg_dev GSbandgap": 0.0,
                    "MagpieData mode GSbandgap": 0.0,
                    "MagpieData std_dev GSbandgap": 0,
                    "MagpieData minimum GSmagmom": 0.0,
                    "MagpieData maximum GSmagmom": 0.0,
                    "MagpieData range GSmagmom": 0.0,
                    "MagpieData mean GSmagmom": 0.0,
                    "MagpieData avg_dev GSmagmom": 0.0,
                    "MagpieData mode GSmagmom": 0.0,
                    "MagpieData std_dev GSmagmom": 0,
                    "MagpieData minimum SpaceGroupNumber": 225.0,
                    "MagpieData maximum SpaceGroupNumber": 225.0,
                    "MagpieData range SpaceGroupNumber": 0.0,
                    "MagpieData mean SpaceGroupNumber": 225.0,
                    "MagpieData avg_dev SpaceGroupNumber": 0.0,
                    "MagpieData mode SpaceGroupNumber": 225.0,
                    "MagpieData std_dev SpaceGroupNumber": 0
                }
            }
        }
    ],
    "test_operating_temperature_celsius": 26.25,
    "min_pH_when_testing": 7.5,
    "max_pH_when_testing": 7.5,
    "test_medium_electrolyte": [
        {
            "substance_name": "water",
            "substance_type": "small molecule",
            "substance_descriptors": {
                "CID": 962,
                "MolecularFormula": "H2O",
                "MolecularWeight": "18.015",
                "CanonicalSMILES": "O",
                "IsomericSMILES": "O",
                "InChI": "InChI=1S/H2O/h1H2",
                "InChIKey": "XLYOFNOQVPJJNP-UHFFFAOYSA-N",
                "IUPACName": "oxidane",
                "XLogP": -0.5,
                "ExactMass": "18.010564683",
                "MonoisotopicMass": "18.010564683",
                "TPSA": 1,
                "Complexity": 0,
                "Charge": 0,
                "HBondDonorCount": 1,
                "HBondAcceptorCount": 1,
                "RotatableBondCount": 0,
                "HeavyAtomCount": 1,
                "IsotopeAtomCount": 0,
                "AtomStereoCount": 0,
                "DefinedAtomStereoCount": 0,
                "UndefinedAtomStereoCount": 0,
                "BondStereoCount": 0,
                "DefinedBondStereoCount": 0,
                "UndefinedBondStereoCount": 0,
                "CovalentUnitCount": 1,
                "Volume3D": 14.7,
                "XStericQuadrupole3D": 0.49,
                "YStericQuadrupole3D": 0.49,
                "ZStericQuadrupole3D": 0.49,
                "FeatureAcceptorCount3D": 1,
                "FeatureDonorCount3D": 1,
                "FeatureAnionCount3D": 0,
                "FeatureCationCount3D": 0,
                "FeatureRingCount3D": 0,
                "FeatureHydrophobeCount3D": 0,
                "ConformerModelRMSD3D": 0.4,
                "EffectiveRotorCount3D": 0,
                "ConformerCount3D": 1,
                "Morgan_128": [
                    0,
                    0,
                    0,
                    0,
                    0,
                    0,
                    0,
                    0,
                    0,
                    0,
                    0,
                    0,
                    0,
                    0,
                    0,
                    0,
                    0,
                    0,
                    0,
                    0,
                    0,
                    0,
                    1,
                    0,
                    0,
                    0,
                    0,
                    0,
                    0,
                    0,
                    0,
                    0,
                    0,
                    0,
                    0,
                    0,
                    0,
                    0,
                    0,
                    0,
                    0,
                    0,
                    0,
                    0,
                    0,
                    0,
                    0,
                    0,
                    0,
                    0,
                    0,
                    0,
                    0,
                    0,
                    0,
                    0,
                    0,
                    0,
                    0,
                    0,
                    0,
                    0,
                    0,
                    0,
                    0,
                    0,
                    0,
                    0,
                    0,
                    0,
                    0,
                    0,
                    0,
                    0,
                    0,
                    0,
                    0,
                    0,
                    0,
                    0,
                    0,
                    0,
                    0,
                    0,
                    0,
                    0,
                    0,
                    0,
                    0,
                    0,
                    0,
                    0,
                    0,
                    0,
                    0,
                    0,
                    0,
                    0,
                    0,
                    0,
                    0,
                    0,
                    0,
                    0,
                    0,
                    0,
                    0,
                    0,
                    0,
                    0,
                    0,
                    0,
                    0,
                    0,
                    0,
                    0,
                    0,
                    0,
                    0,
                    0,
                    0,
                    0,
                    0,
                    0,
                    0,
                    0,
                    0,
                    0
                ]
            }
        }
    ],
    "LDL_ranking": 1.0,
    "UDL_ranking": 1.0,
    "LDL_category": "Moderate Detection",
    "UDL_category": "Moderate UDL Range"
}