{
    "DOI": "10.1109/iCBEB.2012.135",
    "sensor_type": "liquid",
    "detect_target": [
        {
            "substance_name": "quinine",
            "substance_type": "small molecule",
            "substance_descriptors": {
                "CID": 3034034,
                "MolecularFormula": "C20H24N2O2",
                "MolecularWeight": "324.4",
                "CanonicalSMILES": "COC1=CC2=C(C=CN=C2C=C1)C(C3CC4CCN3CC4C=C)O",
                "IsomericSMILES": "COC1=CC2=C(C=CN=C2C=C1)[C@H]([C@@H]3C[C@@H]4CCN3C[C@@H]4C=C)O",
                "InChI": "InChI=1S/C20H24N2O2/c1-3-13-12-22-9-7-14(13)10-19(22)20(23)16-6-8-21-18-5-4-15(24-2)11-17(16)18/h3-6,8,11,13-14,19-20,23H,1,7,9-10,12H2,2H3/t13-,14-,19-,20+/m0/s1",
                "InChIKey": "LOUPRKONTZGTKE-WZBLMQSHSA-N",
                "IUPACName": "(R)-[(2S,4S,5R)-5-ethenyl-1-azabicyclo[2.2.2]octan-2-yl]-(6-methoxyquinolin-4-yl)methanol",
                "XLogP": 2.9,
                "ExactMass": "324.183778013",
                "MonoisotopicMass": "324.183778013",
                "TPSA": 45.6,
                "Complexity": 457,
                "Charge": 0,
                "HBondDonorCount": 1,
                "HBondAcceptorCount": 4,
                "RotatableBondCount": 4,
                "HeavyAtomCount": 24,
                "IsotopeAtomCount": 0,
                "AtomStereoCount": 4,
                "DefinedAtomStereoCount": 4,
                "UndefinedAtomStereoCount": 0,
                "BondStereoCount": 0,
                "DefinedBondStereoCount": 0,
                "UndefinedBondStereoCount": 0,
                "CovalentUnitCount": 1,
                "Volume3D": 252.5,
                "XStericQuadrupole3D": 10.57,
                "YStericQuadrupole3D": 3.02,
                "ZStericQuadrupole3D": 1.36,
                "FeatureAcceptorCount3D": 3,
                "FeatureDonorCount3D": 1,
                "FeatureAnionCount3D": 0,
                "FeatureCationCount3D": 1,
                "FeatureRingCount3D": 3,
                "FeatureHydrophobeCount3D": 1,
                "ConformerModelRMSD3D": 0.8,
                "EffectiveRotorCount3D": 5.2,
                "ConformerCount3D": 7,
                "Morgan_128": [
                    1,
                    1,
                    0,
                    0,
                    0,
                    0,
                    1,
                    0,
                    0,
                    0,
                    0,
                    0,
                    1,
                    1,
                    0,
                    0,
                    0,
                    1,
                    0,
                    1,
                    0,
                    0,
                    0,
                    0,
                    0,
                    0,
                    0,
                    0,
                    0,
                    0,
                    1,
                    0,
                    0,
                    1,
                    0,
                    0,
                    0,
                    0,
                    0,
                    1,
                    0,
                    0,
                    0,
                    0,
                    1,
                    1,
                    0,
                    0,
                    0,
                    0,
                    0,
                    0,
                    1,
                    0,
                    1,
                    1,
                    0,
                    0,
                    0,
                    0,
                    1,
                    0,
                    1,
                    1,
                    0,
                    1,
                    1,
                    0,
                    0,
                    0,
                    0,
                    0,
                    1,
                    1,
                    1,
                    0,
                    0,
                    1,
                    1,
                    0,
                    0,
                    1,
                    0,
                    1,
                    1,
                    0,
                    1,
                    0,
                    0,
                    0,
                    0,
                    0,
                    0,
                    0,
                    0,
                    0,
                    0,
                    0,
                    0,
                    1,
                    1,
                    1,
                    1,
                    1,
                    0,
                    0,
                    0,
                    1,
                    0,
                    1,
                    0,
                    0,
                    0,
                    0,
                    0,
                    1,
                    0,
                    1,
                    0,
                    0,
                    0,
                    0,
                    1,
                    1,
                    0,
                    0,
                    1,
                    0
                ]
            }
        }
    ],
    "lower_detection_limit_log_ppm": -0.488896396,
    "upper_detection_limit_log_ppm": 3.511103604,
    "probe_material": [
        {
            "substance_name": "tungstophosphoric acid",
            "substance_type": "inorganic solid",
            "substance_descriptors": {
                "Number of Elements": "4",
                "Element Types": "- H63 O70 P W12 -",
                "Number of Atoms in Unit Cell": 25,
                "Lattice Parameter a (\u00c5)": "23.281",
                "Lattice Parameter b (\u00c5)": "23.281",
                "Lattice Parameter c (\u00c5)": "23.281",
                "Lattice Angle alpha (degrees)": "90",
                "Lattice Angle beta (degrees)": "90",
                "Lattice Angle gamma (degrees)": "90",
                "Unit Cell Volume (\u00c5\u00b3)": 302.6061420516016,
                "Density (g/cm\u00b3)": 4.118828501082305,
                "Space Group Number": null,
                "Band Gap (eV)": 2.4151999999999996,
                "Is Metallic (1/0)": 0,
                "Formation Energy per Atom (eV)": -2.2651497600928563,
                "Energy Above Hull (eV/atom)": 0.03869292079989428,
                "Energy per Atom (eV/atom)": -7.7451446976,
                "Total Magnetization (\u03bcB)": 2.9997779,
                "Magnetic Ordering": "FM",
                "Bulk Modulus (GPa)": null,
                "Shear Modulus (GPa)": null,
                "Fermi Energy (eV)": 1.24840826,
                "Total Energy (eV)": -193.62861744,
                "Crystal System": null,
                "Magpie Descriptors": {
                    "MagpieData minimum Number": 1.0,
                    "MagpieData maximum Number": 74.0,
                    "MagpieData range Number": 73.0,
                    "MagpieData mean Number": 10.452054794520548,
                    "MagpieData avg_dev Number": 10.508538187277162,
                    "MagpieData mode Number": 8.0,
                    "MagpieData std_dev Number": 25.43940620507839,
                    "MagpieData minimum MendeleevNumber": 51.0,
                    "MagpieData maximum MendeleevNumber": 92.0,
                    "MagpieData range MendeleevNumber": 41.0,
                    "MagpieData mean MendeleevNumber": 86.17123287671232,
                    "MagpieData avg_dev MendeleevNumber": 5.825014073935077,
                    "MagpieData mode MendeleevNumber": 87.0,
                    "MagpieData std_dev MendeleevNumber": 14.221912768551679,
                    "MagpieData minimum AtomicWeight": 1.00794,
                    "MagpieData maximum AtomicWeight": 183.84,
                    "MagpieData range AtomicWeight": 182.83206,
                    "MagpieData mean AtomicWeight": 23.428164260273974,
                    "MagpieData avg_dev AtomicWeight": 26.472433241321074,
                    "MagpieData mode AtomicWeight": 15.9994,
                    "MagpieData std_dev AtomicWeight": 63.929623333511124,
                    "MagpieData minimum MeltingT": 14.01,
                    "MagpieData maximum MeltingT": 3695.0,
                    "MagpieData range MeltingT": 3680.99,
                    "MagpieData mean MeltingT": 338.191301369863,
                    "MagpieData avg_dev MeltingT": 551.8041696378308,
                    "MagpieData mode MeltingT": 54.8,
                    "MagpieData std_dev MeltingT": 1322.9006327242948,
                    "MagpieData minimum Column": 1.0,
                    "MagpieData maximum Column": 16.0,
                    "MagpieData range Column": 15.0,
                    "MagpieData mean Column": 8.698630136986301,
                    "MagpieData avg_dev Column": 7.087633702383187,
                    "MagpieData mode Column": 16.0,
                    "MagpieData std_dev Column": 9.49265774848633,
                    "MagpieData minimum Row": 1.0,
                    "MagpieData maximum Row": 6.0,
                    "MagpieData range Row": 5.0,
                    "MagpieData mean Row": 1.904109589041096,
                    "MagpieData avg_dev Row": 0.7802589604053293,
                    "MagpieData mode Row": 2.0,
                    "MagpieData std_dev Row": 1.738468521765793,
                    "MagpieData minimum CovalentRadius": 31.0,
                    "MagpieData maximum CovalentRadius": 162.0,
                    "MagpieData range CovalentRadius": 131.0,
                    "MagpieData mean CovalentRadius": 59.06849315068493,
                    "MagpieData avg_dev CovalentRadius": 24.223494088947273,
                    "MagpieData mode CovalentRadius": 66.0,
                    "MagpieData std_dev CovalentRadius": 46.53081308565288,
                    "MagpieData minimum Electronegativity": 2.19,
                    "MagpieData maximum Electronegativity": 3.44,
                    "MagpieData range Electronegativity": 1.25,
                    "MagpieData mean Electronegativity": 2.8076027397260273,
                    "MagpieData avg_dev Electronegativity": 0.6064083317695627,
                    "MagpieData mode Electronegativity": 3.44,
                    "MagpieData std_dev Electronegativity": 0.8008324446815077,
                    "MagpieData minimum NsValence": 1.0,
                    "MagpieData maximum NsValence": 2.0,
                    "MagpieData range NsValence": 1.0,
                    "MagpieData mean NsValence": 1.5684931506849316,
                    "MagpieData avg_dev NsValence": 0.4906173766185025,
                    "MagpieData mode NsValence": 2.0,
                    "MagpieData std_dev NsValence": 0.6519607633416933,
                    "MagpieData minimum NpValence": 0.0,
                    "MagpieData maximum NpValence": 4.0,
                    "MagpieData range NpValence": 4.0,
                    "MagpieData mean NpValence": 1.9383561643835616,
                    "MagpieData avg_dev NpValence": 1.9914618127228374,
                    "MagpieData mode NpValence": 4.0,
                    "MagpieData std_dev NpValence": 2.6246365999396577,
                    "MagpieData minimum NdValence": 0.0,
                    "MagpieData maximum NdValence": 4.0,
                    "MagpieData range NdValence": 4.0,
                    "MagpieData mean NdValence": 0.3287671232876712,
                    "MagpieData avg_dev NdValence": 0.603490335897917,
                    "MagpieData mode NdValence": 0.0,
                    "MagpieData std_dev NdValence": 1.4461560280123744,
                    "MagpieData minimum NfValence": 0.0,
                    "MagpieData maximum NfValence": 14.0,
                    "MagpieData range NfValence": 14.0,
                    "MagpieData mean NfValence": 1.1506849315068493,
                    "MagpieData avg_dev NfValence": 2.11221617564271,
                    "MagpieData mode NfValence": 0.0,
                    "MagpieData std_dev NfValence": 5.061546098043311,
                    "MagpieData minimum NValence": 1.0,
                    "MagpieData maximum NValence": 20.0,
                    "MagpieData range NValence": 19.0,
                    "MagpieData mean NValence": 4.986301369863014,
                    "MagpieData avg_dev NValence": 3.440232689059861,
                    "MagpieData mode NValence": 6.0,
                    "MagpieData std_dev NValence": 6.696038909937805,
                    "MagpieData minimum NsUnfilled": 0.0,
                    "MagpieData maximum NsUnfilled": 1.0,
                    "MagpieData range NsUnfilled": 1.0,
                    "MagpieData mean NsUnfilled": 0.4315068493150685,
                    "MagpieData avg_dev NsUnfilled": 0.49061737661850263,
                    "MagpieData mode NsUnfilled": 0.0,
                    "MagpieData std_dev NsUnfilled": 0.6519607633416933,
                    "MagpieData minimum NpUnfilled": 0.0,
                    "MagpieData maximum NpUnfilled": 3.0,
                    "MagpieData range NpUnfilled": 3.0,
                    "MagpieData mean NpUnfilled": 0.9794520547945206,
                    "MagpieData avg_dev NpUnfilled": 1.0062863576656034,
                    "MagpieData mode NpUnfilled": 2.0,
                    "MagpieData std_dev NpUnfilled": 1.3295107236982138,
                    "MagpieData minimum NdUnfilled": 0.0,
                    "MagpieData maximum NdUnfilled": 6.0,
                    "MagpieData range NdUnfilled": 6.0,
                    "MagpieData mean NdUnfilled": 0.4931506849315068,
                    "MagpieData avg_dev NdUnfilled": 0.9052355038468756,
                    "MagpieData mode NdUnfilled": 0.0,
                    "MagpieData std_dev NdUnfilled": 2.1692340420185614,
                    "MagpieData minimum NfUnfilled": 0.0,
                    "MagpieData maximum NfUnfilled": 0.0,
                    "MagpieData range NfUnfilled": 0.0,
                    "MagpieData mean NfUnfilled": 0.0,
                    "MagpieData avg_dev NfUnfilled": 0.0,
                    "MagpieData mode NfUnfilled": 0.0,
                    "MagpieData std_dev NfUnfilled": 0.0,
                    "MagpieData minimum NUnfilled": 1.0,
                    "MagpieData maximum NUnfilled": 6.0,
                    "MagpieData range NUnfilled": 5.0,
                    "MagpieData mean NUnfilled": 1.904109589041096,
                    "MagpieData avg_dev NUnfilled": 0.7802589604053293,
                    "MagpieData mode NUnfilled": 2.0,
                    "MagpieData std_dev NUnfilled": 1.738468521765793,
                    "MagpieData minimum GSvolume_pa": 6.615,
                    "MagpieData maximum GSvolume_pa": 22.5702380952,
                    "MagpieData range GSvolume_pa": 15.9552380952,
                    "MagpieData mean GSvolume_pa": 8.6935975212,
                    "MagpieData avg_dev GSvolume_pa": 1.7938581347342466,
                    "MagpieData mode GSvolume_pa": 9.105,
                    "MagpieData std_dev GSvolume_pa": 3.6555995822083056,
                    "MagpieData minimum GSbandgap": 0.0,
                    "MagpieData maximum GSbandgap": 7.853,
                    "MagpieData range GSbandgap": 7.853,
                    "MagpieData mean GSbandgap": 3.399753424657534,
                    "MagpieData avg_dev GSbandgap": 3.843212797898292,
                    "MagpieData mode GSbandgap": 0.0,
                    "MagpieData std_dev GSbandgap": 5.110113897891401,
                    "MagpieData minimum GSmagmom": 0.0,
                    "MagpieData maximum GSmagmom": 0.0,
                    "MagpieData range GSmagmom": 0.0,
                    "MagpieData mean GSmagmom": 0.0,
                    "MagpieData avg_dev GSmagmom": 0.0,
                    "MagpieData mode GSmagmom": 0.0,
                    "MagpieData std_dev GSmagmom": 0.0,
                    "MagpieData minimum SpaceGroupNumber": 2.0,
                    "MagpieData maximum SpaceGroupNumber": 229.0,
                    "MagpieData range SpaceGroupNumber": 227.0,
                    "MagpieData mean SpaceGroupNumber": 108.3013698630137,
                    "MagpieData avg_dev SpaceGroupNumber": 93.79996246950647,
                    "MagpieData mode SpaceGroupNumber": 12.0,
                    "MagpieData std_dev SpaceGroupNumber": 124.11464380049055
                }
            }
        }
    ],
    "test_operating_temperature_celsius": 27.5,
    "min_pH_when_testing": 7.5,
    "max_pH_when_testing": 7.5,
    "test_medium_electrolyte": [
        {
            "substance_name": "water",
            "substance_type": "small molecule",
            "substance_descriptors": {
                "CID": 962,
                "MolecularFormula": "H2O",
                "MolecularWeight": "18.015",
                "CanonicalSMILES": "O",
                "IsomericSMILES": "O",
                "InChI": "InChI=1S/H2O/h1H2",
                "InChIKey": "XLYOFNOQVPJJNP-UHFFFAOYSA-N",
                "IUPACName": "oxidane",
                "XLogP": -0.5,
                "ExactMass": "18.010564683",
                "MonoisotopicMass": "18.010564683",
                "TPSA": 1,
                "Complexity": 0,
                "Charge": 0,
                "HBondDonorCount": 1,
                "HBondAcceptorCount": 1,
                "RotatableBondCount": 0,
                "HeavyAtomCount": 1,
                "IsotopeAtomCount": 0,
                "AtomStereoCount": 0,
                "DefinedAtomStereoCount": 0,
                "UndefinedAtomStereoCount": 0,
                "BondStereoCount": 0,
                "DefinedBondStereoCount": 0,
                "UndefinedBondStereoCount": 0,
                "CovalentUnitCount": 1,
                "Volume3D": 14.7,
                "XStericQuadrupole3D": 0.49,
                "YStericQuadrupole3D": 0.49,
                "ZStericQuadrupole3D": 0.49,
                "FeatureAcceptorCount3D": 1,
                "FeatureDonorCount3D": 1,
                "FeatureAnionCount3D": 0,
                "FeatureCationCount3D": 0,
                "FeatureRingCount3D": 0,
                "FeatureHydrophobeCount3D": 0,
                "ConformerModelRMSD3D": 0.4,
                "EffectiveRotorCount3D": 0,
                "ConformerCount3D": 1,
                "Morgan_128": [
                    0,
                    0,
                    0,
                    0,
                    0,
                    0,
                    0,
                    0,
                    0,
                    0,
                    0,
                    0,
                    0,
                    0,
                    0,
                    0,
                    0,
                    0,
                    0,
                    0,
                    0,
                    0,
                    1,
                    0,
                    0,
                    0,
                    0,
                    0,
                    0,
                    0,
                    0,
                    0,
                    0,
                    0,
                    0,
                    0,
                    0,
                    0,
                    0,
                    0,
                    0,
                    0,
                    0,
                    0,
                    0,
                    0,
                    0,
                    0,
                    0,
                    0,
                    0,
                    0,
                    0,
                    0,
                    0,
                    0,
                    0,
                    0,
                    0,
                    0,
                    0,
                    0,
                    0,
                    0,
                    0,
                    0,
                    0,
                    0,
                    0,
                    0,
                    0,
                    0,
                    0,
                    0,
                    0,
                    0,
                    0,
                    0,
                    0,
                    0,
                    0,
                    0,
                    0,
                    0,
                    0,
                    0,
                    0,
                    0,
                    0,
                    0,
                    0,
                    0,
                    0,
                    0,
                    0,
                    0,
                    0,
                    0,
                    0,
                    0,
                    0,
                    0,
                    0,
                    0,
                    0,
                    0,
                    0,
                    0,
                    0,
                    0,
                    0,
                    0,
                    0,
                    0,
                    0,
                    0,
                    0,
                    0,
                    0,
                    0,
                    0,
                    0,
                    0,
                    0,
                    0,
                    0,
                    0,
                    0
                ]
            }
        }
    ],
    "LDL_ranking": 1.0,
    "UDL_ranking": 1.0,
    "LDL_category": "High Detection (Lower Sensitivity)",
    "UDL_category": "High UDL Range"
}