{
    "DOI": "10.1109/ICSENS.2013.6688187",
    "sensor_type": "gas",
    "detect_target": [
        {
            "substance_name": "nitrogen dioxide",
            "substance_type": "small molecule",
            "substance_descriptors": {
                "CID": 3032552,
                "MolecularFormula": "NO2",
                "MolecularWeight": "46.006",
                "CanonicalSMILES": "N(=O)[O]",
                "IsomericSMILES": "N(=O)[O]",
                "InChI": "InChI=1S/NO2/c2-1-3",
                "InChIKey": "JCXJVPUVTGWSNB-UHFFFAOYSA-N",
                "XLogP": -0.3,
                "ExactMass": "45.992903243",
                "MonoisotopicMass": "45.992903243",
                "TPSA": 30.4,
                "Complexity": 7,
                "Charge": 0,
                "HBondDonorCount": 0,
                "HBondAcceptorCount": 2,
                "RotatableBondCount": 0,
                "HeavyAtomCount": 3,
                "IsotopeAtomCount": 0,
                "AtomStereoCount": 0,
                "DefinedAtomStereoCount": 0,
                "UndefinedAtomStereoCount": 0,
                "BondStereoCount": 0,
                "DefinedBondStereoCount": 0,
                "UndefinedBondStereoCount": 0,
                "CovalentUnitCount": 1,
                "ConformerCount3D": 0,
                "Morgan_128": [
                    0,
                    0,
                    0,
                    0,
                    0,
                    0,
                    0,
                    0,
                    0,
                    0,
                    1,
                    0,
                    1,
                    0,
                    0,
                    0,
                    0,
                    0,
                    0,
                    0,
                    0,
                    0,
                    0,
                    0,
                    0,
                    0,
                    0,
                    0,
                    0,
                    0,
                    0,
                    0,
                    0,
                    0,
                    0,
                    0,
                    0,
                    0,
                    0,
                    0,
                    0,
                    0,
                    0,
                    0,
                    0,
                    0,
                    0,
                    0,
                    0,
                    0,
                    0,
                    0,
                    1,
                    0,
                    0,
                    0,
                    0,
                    0,
                    0,
                    0,
                    0,
                    0,
                    0,
                    0,
                    0,
                    0,
                    0,
                    0,
                    0,
                    0,
                    0,
                    0,
                    0,
                    0,
                    0,
                    0,
                    0,
                    0,
                    0,
                    0,
                    0,
                    0,
                    0,
                    1,
                    0,
                    1,
                    0,
                    0,
                    0,
                    0,
                    0,
                    0,
                    0,
                    0,
                    0,
                    0,
                    0,
                    0,
                    0,
                    0,
                    0,
                    0,
                    0,
                    0,
                    0,
                    0,
                    0,
                    0,
                    0,
                    0,
                    0,
                    0,
                    0,
                    0,
                    0,
                    0,
                    0,
                    0,
                    0,
                    0,
                    0,
                    0,
                    0,
                    0,
                    0,
                    0,
                    0,
                    0
                ]
            }
        }
    ],
    "lower_detection_limit_log_ppm": -1.346787486,
    "upper_detection_limit_log_ppm": null,
    "probe_material": [
        {
            "substance_name": "indium nitride",
            "substance_type": "inorganic solid",
            "substance_descriptors": {
                "Number of Elements": 2,
                "Element Types": [
                    "In",
                    "N"
                ],
                "Number of Atoms in Unit Cell": 4,
                "Lattice Parameter a (\u00c5)": "3.533",
                "Lattice Parameter b (\u00c5)": "3.533",
                "Lattice Parameter c (\u00c5)": "5.693",
                "Lattice Angle alpha (degrees)": "90",
                "Lattice Angle beta (degrees)": "90",
                "Lattice Angle gamma (degrees)": "120",
                "Unit Cell Volume (\u00c5\u00b3)": 62.58752953435945,
                "Density (g/cm\u00b3)": 6.835816933007001,
                "Space Group Number": 186,
                "Is Metallic (1/0)": 1,
                "Band Gap (eV)": 0.0,
                "Formation Energy per Atom (eV)": -0.11770066687499892,
                "Energy Above Hull (eV/atom)": 0.0,
                "Energy per Atom (eV/atom)": -15.9713711925,
                "Total Magnetization (\u03bcB)": 0.0,
                "Magnetic Ordering": "NM",
                "Bulk Modulus (GPa)": 121.971,
                "Shear Modulus (GPa)": 53.983,
                "Fermi Energy (eV)": 6.05913405,
                "Total Energy (eV)": -3.09493,
                "Crystal System": "hexagonal",
                "Magpie Descriptors": {
                    "MagpieData minimum Number": 7.0,
                    "MagpieData maximum Number": 49.0,
                    "MagpieData range Number": 42.0,
                    "MagpieData mean Number": 28.0,
                    "MagpieData avg_dev Number": 21.0,
                    "MagpieData mode Number": 7.0,
                    "MagpieData std_dev Number": 29.698484809834994,
                    "MagpieData minimum MendeleevNumber": 75.0,
                    "MagpieData maximum MendeleevNumber": 82.0,
                    "MagpieData range MendeleevNumber": 7.0,
                    "MagpieData mean MendeleevNumber": 78.5,
                    "MagpieData avg_dev MendeleevNumber": 3.5,
                    "MagpieData mode MendeleevNumber": 75.0,
                    "MagpieData std_dev MendeleevNumber": 4.949747468305833,
                    "MagpieData minimum AtomicWeight": 14.0067,
                    "MagpieData maximum AtomicWeight": 114.818,
                    "MagpieData range AtomicWeight": 100.8113,
                    "MagpieData mean AtomicWeight": 64.41235,
                    "MagpieData avg_dev AtomicWeight": 50.405649999999994,
                    "MagpieData mode AtomicWeight": 14.0067,
                    "MagpieData std_dev AtomicWeight": 71.2843538502314,
                    "MagpieData minimum MeltingT": 63.05,
                    "MagpieData maximum MeltingT": 429.75,
                    "MagpieData range MeltingT": 366.7,
                    "MagpieData mean MeltingT": 246.4,
                    "MagpieData avg_dev MeltingT": 183.35000000000002,
                    "MagpieData mode MeltingT": 63.05,
                    "MagpieData std_dev MeltingT": 259.296056661107,
                    "MagpieData minimum Column": 13.0,
                    "MagpieData maximum Column": 15.0,
                    "MagpieData range Column": 2.0,
                    "MagpieData mean Column": 14.0,
                    "MagpieData avg_dev Column": 1.0,
                    "MagpieData mode Column": 13.0,
                    "MagpieData std_dev Column": 1.4142135623730951,
                    "MagpieData minimum Row": 2.0,
                    "MagpieData maximum Row": 5.0,
                    "MagpieData range Row": 3.0,
                    "MagpieData mean Row": 3.5,
                    "MagpieData avg_dev Row": 1.5,
                    "MagpieData mode Row": 2.0,
                    "MagpieData std_dev Row": 2.1213203435596424,
                    "MagpieData minimum CovalentRadius": 71.0,
                    "MagpieData maximum CovalentRadius": 142.0,
                    "MagpieData range CovalentRadius": 71.0,
                    "MagpieData mean CovalentRadius": 106.5,
                    "MagpieData avg_dev CovalentRadius": 35.5,
                    "MagpieData mode CovalentRadius": 71.0,
                    "MagpieData std_dev CovalentRadius": 50.204581464244875,
                    "MagpieData minimum Electronegativity": 1.78,
                    "MagpieData maximum Electronegativity": 3.04,
                    "MagpieData range Electronegativity": 1.26,
                    "MagpieData mean Electronegativity": 2.41,
                    "MagpieData avg_dev Electronegativity": 0.63,
                    "MagpieData mode Electronegativity": 1.78,
                    "MagpieData std_dev Electronegativity": 0.8909545442950499,
                    "MagpieData minimum NsValence": 2.0,
                    "MagpieData maximum NsValence": 2.0,
                    "MagpieData range NsValence": 0.0,
                    "MagpieData mean NsValence": 2.0,
                    "MagpieData avg_dev NsValence": 0.0,
                    "MagpieData mode NsValence": 2.0,
                    "MagpieData std_dev NsValence": 0.0,
                    "MagpieData minimum NpValence": 1.0,
                    "MagpieData maximum NpValence": 3.0,
                    "MagpieData range NpValence": 2.0,
                    "MagpieData mean NpValence": 2.0,
                    "MagpieData avg_dev NpValence": 1.0,
                    "MagpieData mode NpValence": 1.0,
                    "MagpieData std_dev NpValence": 1.4142135623730951,
                    "MagpieData minimum NdValence": 0.0,
                    "MagpieData maximum NdValence": 10.0,
                    "MagpieData range NdValence": 10.0,
                    "MagpieData mean NdValence": 5.0,
                    "MagpieData avg_dev NdValence": 5.0,
                    "MagpieData mode NdValence": 0.0,
                    "MagpieData std_dev NdValence": 7.0710678118654755,
                    "MagpieData minimum NfValence": 0.0,
                    "MagpieData maximum NfValence": 0.0,
                    "MagpieData range NfValence": 0.0,
                    "MagpieData mean NfValence": 0.0,
                    "MagpieData avg_dev NfValence": 0.0,
                    "MagpieData mode NfValence": 0.0,
                    "MagpieData std_dev NfValence": 0.0,
                    "MagpieData minimum NValence": 5.0,
                    "MagpieData maximum NValence": 13.0,
                    "MagpieData range NValence": 8.0,
                    "MagpieData mean NValence": 9.0,
                    "MagpieData avg_dev NValence": 4.0,
                    "MagpieData mode NValence": 5.0,
                    "MagpieData std_dev NValence": 5.656854249492381,
                    "MagpieData minimum NsUnfilled": 0.0,
                    "MagpieData maximum NsUnfilled": 0.0,
                    "MagpieData range NsUnfilled": 0.0,
                    "MagpieData mean NsUnfilled": 0.0,
                    "MagpieData avg_dev NsUnfilled": 0.0,
                    "MagpieData mode NsUnfilled": 0.0,
                    "MagpieData std_dev NsUnfilled": 0.0,
                    "MagpieData minimum NpUnfilled": 3.0,
                    "MagpieData maximum NpUnfilled": 5.0,
                    "MagpieData range NpUnfilled": 2.0,
                    "MagpieData mean NpUnfilled": 4.0,
                    "MagpieData avg_dev NpUnfilled": 1.0,
                    "MagpieData mode NpUnfilled": 3.0,
                    "MagpieData std_dev NpUnfilled": 1.4142135623730951,
                    "MagpieData minimum NdUnfilled": 0.0,
                    "MagpieData maximum NdUnfilled": 0.0,
                    "MagpieData range NdUnfilled": 0.0,
                    "MagpieData mean NdUnfilled": 0.0,
                    "MagpieData avg_dev NdUnfilled": 0.0,
                    "MagpieData mode NdUnfilled": 0.0,
                    "MagpieData std_dev NdUnfilled": 0.0,
                    "MagpieData minimum NfUnfilled": 0.0,
                    "MagpieData maximum NfUnfilled": 0.0,
                    "MagpieData range NfUnfilled": 0.0,
                    "MagpieData mean NfUnfilled": 0.0,
                    "MagpieData avg_dev NfUnfilled": 0.0,
                    "MagpieData mode NfUnfilled": 0.0,
                    "MagpieData std_dev NfUnfilled": 0.0,
                    "MagpieData minimum NUnfilled": 3.0,
                    "MagpieData maximum NUnfilled": 5.0,
                    "MagpieData range NUnfilled": 2.0,
                    "MagpieData mean NUnfilled": 4.0,
                    "MagpieData avg_dev NUnfilled": 1.0,
                    "MagpieData mode NUnfilled": 3.0,
                    "MagpieData std_dev NUnfilled": 1.4142135623730951,
                    "MagpieData minimum GSvolume_pa": 14.76875,
                    "MagpieData maximum GSvolume_pa": 24.26,
                    "MagpieData range GSvolume_pa": 9.49125,
                    "MagpieData mean GSvolume_pa": 19.514375,
                    "MagpieData avg_dev GSvolume_pa": 4.745625,
                    "MagpieData mode GSvolume_pa": 14.76875,
                    "MagpieData std_dev GSvolume_pa": 6.71132723693682,
                    "MagpieData minimum GSbandgap": 0.0,
                    "MagpieData maximum GSbandgap": 6.437,
                    "MagpieData range GSbandgap": 6.437,
                    "MagpieData mean GSbandgap": 3.2185,
                    "MagpieData avg_dev GSbandgap": 3.2185,
                    "MagpieData mode GSbandgap": 0.0,
                    "MagpieData std_dev GSbandgap": 4.551646350497807,
                    "MagpieData minimum GSmagmom": 0.0,
                    "MagpieData maximum GSmagmom": 0.0,
                    "MagpieData range GSmagmom": 0.0,
                    "MagpieData mean GSmagmom": 0.0,
                    "MagpieData avg_dev GSmagmom": 0.0,
                    "MagpieData mode GSmagmom": 0.0,
                    "MagpieData std_dev GSmagmom": 0.0,
                    "MagpieData minimum SpaceGroupNumber": 139.0,
                    "MagpieData maximum SpaceGroupNumber": 194.0,
                    "MagpieData range SpaceGroupNumber": 55.0,
                    "MagpieData mean SpaceGroupNumber": 166.5,
                    "MagpieData avg_dev SpaceGroupNumber": 27.5,
                    "MagpieData mode SpaceGroupNumber": 139.0,
                    "MagpieData std_dev SpaceGroupNumber": 38.890872965260115
                }
            }
        }
    ],
    "test_operating_temperature_celsius": 26.25,
    "min_pH_when_testing": -1.0,
    "max_pH_when_testing": -1.0,
    "test_medium_electrolyte": [
        {
            "substance_name": "nitrogen",
            "substance_type": "small molecule",
            "substance_descriptors": {
                "CID": 947,
                "MolecularFormula": "N2",
                "MolecularWeight": "28.014",
                "CanonicalSMILES": "N#N",
                "IsomericSMILES": "N#N",
                "InChI": "InChI=1S/N2/c1-2",
                "InChIKey": "IJGRMHOSHXDMSA-UHFFFAOYSA-N",
                "IUPACName": "molecular nitrogen",
                "XLogP": 0.1,
                "ExactMass": "28.006148008",
                "MonoisotopicMass": "28.006148008",
                "TPSA": 47.6,
                "Complexity": 8,
                "Charge": 0,
                "HBondDonorCount": 0,
                "HBondAcceptorCount": 2,
                "RotatableBondCount": 0,
                "HeavyAtomCount": 2,
                "IsotopeAtomCount": 0,
                "AtomStereoCount": 0,
                "DefinedAtomStereoCount": 0,
                "UndefinedAtomStereoCount": 0,
                "BondStereoCount": 0,
                "DefinedBondStereoCount": 0,
                "UndefinedBondStereoCount": 0,
                "CovalentUnitCount": 1,
                "Volume3D": 23.1,
                "XStericQuadrupole3D": 0.82,
                "YStericQuadrupole3D": 0.51,
                "ZStericQuadrupole3D": 0.51,
                "FeatureAcceptorCount3D": 0,
                "FeatureDonorCount3D": 0,
                "FeatureAnionCount3D": 0,
                "FeatureCationCount3D": 0,
                "FeatureRingCount3D": 0,
                "FeatureHydrophobeCount3D": 0,
                "ConformerModelRMSD3D": 0.4,
                "EffectiveRotorCount3D": 0,
                "ConformerCount3D": 1,
                "Morgan_128": [
                    0,
                    0,
                    0,
                    0,
                    0,
                    0,
                    0,
                    0,
                    0,
                    0,
                    0,
                    0,
                    0,
                    0,
                    0,
                    0,
                    0,
                    0,
                    0,
                    0,
                    0,
                    0,
                    0,
                    0,
                    0,
                    0,
                    0,
                    0,
                    0,
                    0,
                    0,
                    0,
                    0,
                    0,
                    0,
                    0,
                    0,
                    0,
                    0,
                    0,
                    0,
                    0,
                    0,
                    0,
                    0,
                    0,
                    0,
                    0,
                    0,
                    0,
                    0,
                    0,
                    0,
                    0,
                    0,
                    0,
                    0,
                    0,
                    0,
                    0,
                    0,
                    0,
                    0,
                    0,
                    0,
                    0,
                    0,
                    0,
                    0,
                    0,
                    0,
                    0,
                    0,
                    0,
                    0,
                    0,
                    1,
                    0,
                    0,
                    0,
                    0,
                    0,
                    0,
                    0,
                    0,
                    0,
                    0,
                    0,
                    0,
                    0,
                    0,
                    0,
                    0,
                    0,
                    0,
                    0,
                    0,
                    0,
                    0,
                    0,
                    0,
                    0,
                    0,
                    0,
                    1,
                    0,
                    0,
                    0,
                    0,
                    0,
                    0,
                    0,
                    0,
                    0,
                    0,
                    0,
                    0,
                    0,
                    0,
                    0,
                    0,
                    0,
                    0,
                    0,
                    0,
                    0,
                    0,
                    0
                ]
            }
        }
    ],
    "LDL_ranking": 1.0,
    "UDL_ranking": null,
    "LDL_category": "Moderate Detection",
    "UDL_category": null
}