{
    "DOI": "10.1109/ICSENS.2010.5690276",
    "sensor_type": "gas",
    "detect_target": [
        {
            "substance_name": "dimethyl methylphosphonate",
            "substance_type": "small molecule",
            "substance_descriptors": {
                "CID": 12958,
                "MolecularFormula": "C3H9O3P",
                "MolecularWeight": "124.08",
                "CanonicalSMILES": "COP(=O)(C)OC",
                "IsomericSMILES": "COP(=O)(C)OC",
                "InChI": "InChI=1S/C3H9O3P/c1-5-7(3,4)6-2/h1-3H3",
                "InChIKey": "VONWDASPFIQPDY-UHFFFAOYSA-N",
                "IUPACName": "[methoxy(methyl)phosphoryl]oxymethane",
                "XLogP": -0.7,
                "ExactMass": "124.02893114",
                "MonoisotopicMass": "124.02893114",
                "TPSA": 35.5,
                "Complexity": 82,
                "Charge": 0,
                "HBondDonorCount": 0,
                "HBondAcceptorCount": 3,
                "RotatableBondCount": 2,
                "HeavyAtomCount": 7,
                "IsotopeAtomCount": 0,
                "AtomStereoCount": 0,
                "DefinedAtomStereoCount": 0,
                "UndefinedAtomStereoCount": 0,
                "BondStereoCount": 0,
                "DefinedBondStereoCount": 0,
                "UndefinedBondStereoCount": 0,
                "CovalentUnitCount": 1,
                "Volume3D": 90.9,
                "XStericQuadrupole3D": 2.42,
                "YStericQuadrupole3D": 1.44,
                "ZStericQuadrupole3D": 1.15,
                "FeatureAcceptorCount3D": 1,
                "FeatureDonorCount3D": 0,
                "FeatureAnionCount3D": 0,
                "FeatureCationCount3D": 0,
                "FeatureRingCount3D": 0,
                "FeatureHydrophobeCount3D": 0,
                "ConformerModelRMSD3D": 0.4,
                "EffectiveRotorCount3D": 2,
                "ConformerCount3D": 7,
                "Morgan_128": [
                    0,
                    0,
                    0,
                    1,
                    0,
                    0,
                    0,
                    0,
                    0,
                    0,
                    1,
                    0,
                    0,
                    0,
                    0,
                    0,
                    0,
                    0,
                    0,
                    0,
                    0,
                    0,
                    0,
                    0,
                    0,
                    0,
                    0,
                    0,
                    0,
                    0,
                    0,
                    1,
                    0,
                    1,
                    0,
                    0,
                    0,
                    0,
                    0,
                    0,
                    0,
                    0,
                    0,
                    0,
                    0,
                    0,
                    0,
                    0,
                    0,
                    0,
                    0,
                    0,
                    0,
                    0,
                    0,
                    1,
                    0,
                    0,
                    0,
                    0,
                    0,
                    0,
                    0,
                    0,
                    1,
                    0,
                    0,
                    0,
                    0,
                    0,
                    0,
                    0,
                    0,
                    1,
                    0,
                    0,
                    0,
                    0,
                    0,
                    0,
                    0,
                    0,
                    0,
                    1,
                    0,
                    0,
                    1,
                    0,
                    0,
                    1,
                    0,
                    0,
                    0,
                    0,
                    0,
                    0,
                    0,
                    0,
                    0,
                    0,
                    0,
                    0,
                    1,
                    0,
                    0,
                    0,
                    0,
                    0,
                    0,
                    0,
                    0,
                    0,
                    0,
                    0,
                    0,
                    0,
                    0,
                    0,
                    0,
                    0,
                    0,
                    0,
                    0,
                    0,
                    0,
                    0,
                    0,
                    0
                ]
            }
        }
    ],
    "lower_detection_limit_log_ppm": -0.301029996,
    "upper_detection_limit_log_ppm": 0.301029996,
    "probe_material": [
        {
            "substance_name": "carbon nanotube",
            "substance_type": "inorganic solid",
            "substance_descriptors": {
                "Number of Elements": 1,
                "Element Types": [
                    "C"
                ],
                "Number of Atoms in Unit Cell": 2,
                "Lattice Parameter a (\u00c5)": "4.89",
                "Lattice Parameter b (\u00c5)": "4.89",
                "Lattice Parameter c (\u00c5)": "3.88",
                "Lattice Angle alpha (degrees)": "90",
                "Lattice Angle beta (degrees)": "90",
                "Lattice Angle gamma (degrees)": "120",
                "Unit Cell Volume (\u00c5\u00b3)": 44.527298939160254,
                "Density (g/cm\u00b3)": 0.8958206332912027,
                "Space Group Number": 191,
                "Band Gap (eV)": 9.999999999998899e-05,
                "Is Metallic (1/0)": 0,
                "Formation Energy per Atom (eV)": 0.009136742499999073,
                "Energy Above Hull (eV/atom)": 0.009136742499999073,
                "Energy per Atom (eV/atom)": -9.21952875,
                "Total Magnetization (\u03bcB)": 0.0,
                "Magnetic Ordering": "NM",
                "Bulk Modulus (GPa)": 265.14,
                "Shear Modulus (GPa)": 205.09,
                "Fermi Energy (eV)": -1.24547809,
                "Total Energy (eV)": -8.01439,
                "Crystal System": "hexagonal",
                "Magpie Descriptors": {
                    "MagpieData minimum Number": 6.0,
                    "MagpieData maximum Number": 6.0,
                    "MagpieData range Number": 0.0,
                    "MagpieData mean Number": 6.0,
                    "MagpieData avg_dev Number": 0.0,
                    "MagpieData mode Number": 6.0,
                    "MagpieData std_dev Number": 0,
                    "MagpieData minimum MendeleevNumber": 77.0,
                    "MagpieData maximum MendeleevNumber": 77.0,
                    "MagpieData range MendeleevNumber": 0.0,
                    "MagpieData mean MendeleevNumber": 77.0,
                    "MagpieData avg_dev MendeleevNumber": 0.0,
                    "MagpieData mode MendeleevNumber": 77.0,
                    "MagpieData std_dev MendeleevNumber": 0,
                    "MagpieData minimum AtomicWeight": 12.0107,
                    "MagpieData maximum AtomicWeight": 12.0107,
                    "MagpieData range AtomicWeight": 0.0,
                    "MagpieData mean AtomicWeight": 12.0107,
                    "MagpieData avg_dev AtomicWeight": 0.0,
                    "MagpieData mode AtomicWeight": 12.0107,
                    "MagpieData std_dev AtomicWeight": 0,
                    "MagpieData minimum MeltingT": 3823.0,
                    "MagpieData maximum MeltingT": 3823.0,
                    "MagpieData range MeltingT": 0.0,
                    "MagpieData mean MeltingT": 3823.0,
                    "MagpieData avg_dev MeltingT": 0.0,
                    "MagpieData mode MeltingT": 3823.0,
                    "MagpieData std_dev MeltingT": 0,
                    "MagpieData minimum Column": 14.0,
                    "MagpieData maximum Column": 14.0,
                    "MagpieData range Column": 0.0,
                    "MagpieData mean Column": 14.0,
                    "MagpieData avg_dev Column": 0.0,
                    "MagpieData mode Column": 14.0,
                    "MagpieData std_dev Column": 0,
                    "MagpieData minimum Row": 2.0,
                    "MagpieData maximum Row": 2.0,
                    "MagpieData range Row": 0.0,
                    "MagpieData mean Row": 2.0,
                    "MagpieData avg_dev Row": 0.0,
                    "MagpieData mode Row": 2.0,
                    "MagpieData std_dev Row": 0,
                    "MagpieData minimum CovalentRadius": 76.0,
                    "MagpieData maximum CovalentRadius": 76.0,
                    "MagpieData range CovalentRadius": 0.0,
                    "MagpieData mean CovalentRadius": 76.0,
                    "MagpieData avg_dev CovalentRadius": 0.0,
                    "MagpieData mode CovalentRadius": 76.0,
                    "MagpieData std_dev CovalentRadius": 0,
                    "MagpieData minimum Electronegativity": 2.55,
                    "MagpieData maximum Electronegativity": 2.55,
                    "MagpieData range Electronegativity": 0.0,
                    "MagpieData mean Electronegativity": 2.55,
                    "MagpieData avg_dev Electronegativity": 0.0,
                    "MagpieData mode Electronegativity": 2.55,
                    "MagpieData std_dev Electronegativity": 0,
                    "MagpieData minimum NsValence": 2.0,
                    "MagpieData maximum NsValence": 2.0,
                    "MagpieData range NsValence": 0.0,
                    "MagpieData mean NsValence": 2.0,
                    "MagpieData avg_dev NsValence": 0.0,
                    "MagpieData mode NsValence": 2.0,
                    "MagpieData std_dev NsValence": 0,
                    "MagpieData minimum NpValence": 2.0,
                    "MagpieData maximum NpValence": 2.0,
                    "MagpieData range NpValence": 0.0,
                    "MagpieData mean NpValence": 2.0,
                    "MagpieData avg_dev NpValence": 0.0,
                    "MagpieData mode NpValence": 2.0,
                    "MagpieData std_dev NpValence": 0,
                    "MagpieData minimum NdValence": 0.0,
                    "MagpieData maximum NdValence": 0.0,
                    "MagpieData range NdValence": 0.0,
                    "MagpieData mean NdValence": 0.0,
                    "MagpieData avg_dev NdValence": 0.0,
                    "MagpieData mode NdValence": 0.0,
                    "MagpieData std_dev NdValence": 0,
                    "MagpieData minimum NfValence": 0.0,
                    "MagpieData maximum NfValence": 0.0,
                    "MagpieData range NfValence": 0.0,
                    "MagpieData mean NfValence": 0.0,
                    "MagpieData avg_dev NfValence": 0.0,
                    "MagpieData mode NfValence": 0.0,
                    "MagpieData std_dev NfValence": 0,
                    "MagpieData minimum NValence": 4.0,
                    "MagpieData maximum NValence": 4.0,
                    "MagpieData range NValence": 0.0,
                    "MagpieData mean NValence": 4.0,
                    "MagpieData avg_dev NValence": 0.0,
                    "MagpieData mode NValence": 4.0,
                    "MagpieData std_dev NValence": 0,
                    "MagpieData minimum NsUnfilled": 0.0,
                    "MagpieData maximum NsUnfilled": 0.0,
                    "MagpieData range NsUnfilled": 0.0,
                    "MagpieData mean NsUnfilled": 0.0,
                    "MagpieData avg_dev NsUnfilled": 0.0,
                    "MagpieData mode NsUnfilled": 0.0,
                    "MagpieData std_dev NsUnfilled": 0,
                    "MagpieData minimum NpUnfilled": 4.0,
                    "MagpieData maximum NpUnfilled": 4.0,
                    "MagpieData range NpUnfilled": 0.0,
                    "MagpieData mean NpUnfilled": 4.0,
                    "MagpieData avg_dev NpUnfilled": 0.0,
                    "MagpieData mode NpUnfilled": 4.0,
                    "MagpieData std_dev NpUnfilled": 0,
                    "MagpieData minimum NdUnfilled": 0.0,
                    "MagpieData maximum NdUnfilled": 0.0,
                    "MagpieData range NdUnfilled": 0.0,
                    "MagpieData mean NdUnfilled": 0.0,
                    "MagpieData avg_dev NdUnfilled": 0.0,
                    "MagpieData mode NdUnfilled": 0.0,
                    "MagpieData std_dev NdUnfilled": 0,
                    "MagpieData minimum NfUnfilled": 0.0,
                    "MagpieData maximum NfUnfilled": 0.0,
                    "MagpieData range NfUnfilled": 0.0,
                    "MagpieData mean NfUnfilled": 0.0,
                    "MagpieData avg_dev NfUnfilled": 0.0,
                    "MagpieData mode NfUnfilled": 0.0,
                    "MagpieData std_dev NfUnfilled": 0,
                    "MagpieData minimum NUnfilled": 4.0,
                    "MagpieData maximum NUnfilled": 4.0,
                    "MagpieData range NUnfilled": 0.0,
                    "MagpieData mean NUnfilled": 4.0,
                    "MagpieData avg_dev NUnfilled": 0.0,
                    "MagpieData mode NUnfilled": 4.0,
                    "MagpieData std_dev NUnfilled": 0,
                    "MagpieData minimum GSvolume_pa": 5.64,
                    "MagpieData maximum GSvolume_pa": 5.64,
                    "MagpieData range GSvolume_pa": 0.0,
                    "MagpieData mean GSvolume_pa": 5.64,
                    "MagpieData avg_dev GSvolume_pa": 0.0,
                    "MagpieData mode GSvolume_pa": 5.64,
                    "MagpieData std_dev GSvolume_pa": 0,
                    "MagpieData minimum GSbandgap": 4.496,
                    "MagpieData maximum GSbandgap": 4.496,
                    "MagpieData range GSbandgap": 0.0,
                    "MagpieData mean GSbandgap": 4.496,
                    "MagpieData avg_dev GSbandgap": 0.0,
                    "MagpieData mode GSbandgap": 4.496,
                    "MagpieData std_dev GSbandgap": 0,
                    "MagpieData minimum GSmagmom": 0.0,
                    "MagpieData maximum GSmagmom": 0.0,
                    "MagpieData range GSmagmom": 0.0,
                    "MagpieData mean GSmagmom": 0.0,
                    "MagpieData avg_dev GSmagmom": 0.0,
                    "MagpieData mode GSmagmom": 0.0,
                    "MagpieData std_dev GSmagmom": 0,
                    "MagpieData minimum SpaceGroupNumber": 194.0,
                    "MagpieData maximum SpaceGroupNumber": 194.0,
                    "MagpieData range SpaceGroupNumber": 0.0,
                    "MagpieData mean SpaceGroupNumber": 194.0,
                    "MagpieData avg_dev SpaceGroupNumber": 0.0,
                    "MagpieData mode SpaceGroupNumber": 194.0,
                    "MagpieData std_dev SpaceGroupNumber": 0
                }
            }
        }
    ],
    "test_operating_temperature_celsius": 27.5,
    "min_pH_when_testing": -1.0,
    "max_pH_when_testing": -1.0,
    "test_medium_electrolyte": [
        {
            "substance_name": "oxygen",
            "substance_type": "small molecule",
            "substance_descriptors": {
                "CID": 977,
                "MolecularFormula": "O2",
                "MolecularWeight": "31.999",
                "CanonicalSMILES": "O=O",
                "IsomericSMILES": "O=O",
                "InChI": "InChI=1S/O2/c1-2",
                "InChIKey": "MYMOFIZGZYHOMD-UHFFFAOYSA-N",
                "IUPACName": "molecular oxygen",
                "XLogP": -1.1,
                "ExactMass": "31.989829239",
                "MonoisotopicMass": "31.989829239",
                "TPSA": 34.1,
                "Complexity": 0,
                "Charge": 0,
                "HBondDonorCount": 0,
                "HBondAcceptorCount": 2,
                "RotatableBondCount": 0,
                "HeavyAtomCount": 2,
                "IsotopeAtomCount": 0,
                "AtomStereoCount": 0,
                "DefinedAtomStereoCount": 0,
                "UndefinedAtomStereoCount": 0,
                "BondStereoCount": 0,
                "DefinedBondStereoCount": 0,
                "UndefinedBondStereoCount": 0,
                "CovalentUnitCount": 1,
                "Volume3D": 22.9,
                "XStericQuadrupole3D": 0.87,
                "YStericQuadrupole3D": 0.49,
                "ZStericQuadrupole3D": 0.49,
                "FeatureAcceptorCount3D": 0,
                "FeatureDonorCount3D": 0,
                "FeatureAnionCount3D": 0,
                "FeatureCationCount3D": 0,
                "FeatureRingCount3D": 0,
                "FeatureHydrophobeCount3D": 0,
                "ConformerModelRMSD3D": 0.4,
                "EffectiveRotorCount3D": 0,
                "ConformerCount3D": 1,
                "Morgan_128": [
                    0,
                    0,
                    0,
                    0,
                    0,
                    0,
                    0,
                    0,
                    0,
                    0,
                    1,
                    0,
                    0,
                    0,
                    0,
                    0,
                    1,
                    0,
                    0,
                    0,
                    0,
                    0,
                    0,
                    0,
                    0,
                    0,
                    0,
                    0,
                    0,
                    0,
                    0,
                    0,
                    0,
                    0,
                    0,
                    0,
                    0,
                    0,
                    0,
                    0,
                    0,
                    0,
                    0,
                    0,
                    0,
                    0,
                    0,
                    0,
                    0,
                    0,
                    0,
                    0,
                    0,
                    0,
                    0,
                    0,
                    0,
                    0,
                    0,
                    0,
                    0,
                    0,
                    0,
                    0,
                    0,
                    0,
                    0,
                    0,
                    0,
                    0,
                    0,
                    0,
                    0,
                    0,
                    0,
                    0,
                    0,
                    0,
                    0,
                    0,
                    0,
                    0,
                    0,
                    0,
                    0,
                    0,
                    0,
                    0,
                    0,
                    0,
                    0,
                    0,
                    0,
                    0,
                    0,
                    0,
                    0,
                    0,
                    0,
                    0,
                    0,
                    0,
                    0,
                    0,
                    0,
                    0,
                    0,
                    0,
                    0,
                    0,
                    0,
                    0,
                    0,
                    0,
                    0,
                    0,
                    0,
                    0,
                    0,
                    0,
                    0,
                    0,
                    0,
                    0,
                    0,
                    0,
                    0,
                    0
                ]
            }
        },
        {
            "substance_name": "nitrogen",
            "substance_type": "small molecule",
            "substance_descriptors": {
                "CID": 947,
                "MolecularFormula": "N2",
                "MolecularWeight": "28.014",
                "CanonicalSMILES": "N#N",
                "IsomericSMILES": "N#N",
                "InChI": "InChI=1S/N2/c1-2",
                "InChIKey": "IJGRMHOSHXDMSA-UHFFFAOYSA-N",
                "IUPACName": "molecular nitrogen",
                "XLogP": 0.1,
                "ExactMass": "28.006148008",
                "MonoisotopicMass": "28.006148008",
                "TPSA": 47.6,
                "Complexity": 8,
                "Charge": 0,
                "HBondDonorCount": 0,
                "HBondAcceptorCount": 2,
                "RotatableBondCount": 0,
                "HeavyAtomCount": 2,
                "IsotopeAtomCount": 0,
                "AtomStereoCount": 0,
                "DefinedAtomStereoCount": 0,
                "UndefinedAtomStereoCount": 0,
                "BondStereoCount": 0,
                "DefinedBondStereoCount": 0,
                "UndefinedBondStereoCount": 0,
                "CovalentUnitCount": 1,
                "Volume3D": 23.1,
                "XStericQuadrupole3D": 0.82,
                "YStericQuadrupole3D": 0.51,
                "ZStericQuadrupole3D": 0.51,
                "FeatureAcceptorCount3D": 0,
                "FeatureDonorCount3D": 0,
                "FeatureAnionCount3D": 0,
                "FeatureCationCount3D": 0,
                "FeatureRingCount3D": 0,
                "FeatureHydrophobeCount3D": 0,
                "ConformerModelRMSD3D": 0.4,
                "EffectiveRotorCount3D": 0,
                "ConformerCount3D": 1,
                "Morgan_128": [
                    0,
                    0,
                    0,
                    0,
                    0,
                    0,
                    0,
                    0,
                    0,
                    0,
                    0,
                    0,
                    0,
                    0,
                    0,
                    0,
                    0,
                    0,
                    0,
                    0,
                    0,
                    0,
                    0,
                    0,
                    0,
                    0,
                    0,
                    0,
                    0,
                    0,
                    0,
                    0,
                    0,
                    0,
                    0,
                    0,
                    0,
                    0,
                    0,
                    0,
                    0,
                    0,
                    0,
                    0,
                    0,
                    0,
                    0,
                    0,
                    0,
                    0,
                    0,
                    0,
                    0,
                    0,
                    0,
                    0,
                    0,
                    0,
                    0,
                    0,
                    0,
                    0,
                    0,
                    0,
                    0,
                    0,
                    0,
                    0,
                    0,
                    0,
                    0,
                    0,
                    0,
                    0,
                    0,
                    0,
                    1,
                    0,
                    0,
                    0,
                    0,
                    0,
                    0,
                    0,
                    0,
                    0,
                    0,
                    0,
                    0,
                    0,
                    0,
                    0,
                    0,
                    0,
                    0,
                    0,
                    0,
                    0,
                    0,
                    0,
                    0,
                    0,
                    0,
                    0,
                    1,
                    0,
                    0,
                    0,
                    0,
                    0,
                    0,
                    0,
                    0,
                    0,
                    0,
                    0,
                    0,
                    0,
                    0,
                    0,
                    0,
                    0,
                    0,
                    0,
                    0,
                    0,
                    0,
                    0
                ]
            }
        }
    ],
    "LDL_ranking": 1.0,
    "UDL_ranking": 2.0,
    "LDL_category": "High Detection (Lower Sensitivity)",
    "UDL_category": "Low UDL Range"
}