{
    "DOI": "10.1021/acs.langmuir.9b00085",
    "sensor_type": "liquid",
    "detect_target": [
        {
            "substance_name": "uric acid",
            "substance_type": "small molecule",
            "substance_descriptors": {
                "CID": 1175,
                "MolecularFormula": "C5H4N4O3",
                "MolecularWeight": "168.11",
                "CanonicalSMILES": "C12=C(NC(=O)N1)NC(=O)NC2=O",
                "IsomericSMILES": "C12=C(NC(=O)N1)NC(=O)NC2=O",
                "InChI": "InChI=1S/C5H4N4O3/c10-3-1-2(7-4(11)6-1)8-5(12)9-3/h(H4,6,7,8,9,10,11,12)",
                "InChIKey": "LEHOTFFKMJEONL-UHFFFAOYSA-N",
                "IUPACName": "7,9-dihydro-3H-purine-2,6,8-trione",
                "XLogP": -1.9,
                "ExactMass": "168.02834000",
                "MonoisotopicMass": "168.02834000",
                "TPSA": 99.3,
                "Complexity": 332,
                "Charge": 0,
                "HBondDonorCount": 4,
                "HBondAcceptorCount": 3,
                "RotatableBondCount": 0,
                "HeavyAtomCount": 12,
                "IsotopeAtomCount": 0,
                "AtomStereoCount": 0,
                "DefinedAtomStereoCount": 0,
                "UndefinedAtomStereoCount": 0,
                "BondStereoCount": 0,
                "DefinedBondStereoCount": 0,
                "UndefinedBondStereoCount": 0,
                "CovalentUnitCount": 1,
                "Volume3D": 110.2,
                "XStericQuadrupole3D": 4.17,
                "YStericQuadrupole3D": 1.9,
                "ZStericQuadrupole3D": 0.56,
                "FeatureAcceptorCount3D": 3,
                "FeatureDonorCount3D": 4,
                "FeatureAnionCount3D": 0,
                "FeatureCationCount3D": 0,
                "FeatureRingCount3D": 2,
                "FeatureHydrophobeCount3D": 0,
                "ConformerModelRMSD3D": 0.4,
                "EffectiveRotorCount3D": 0,
                "ConformerCount3D": 1,
                "Morgan_128": [
                    1,
                    0,
                    0,
                    0,
                    0,
                    0,
                    0,
                    0,
                    0,
                    0,
                    1,
                    0,
                    0,
                    0,
                    0,
                    0,
                    0,
                    0,
                    0,
                    0,
                    0,
                    0,
                    0,
                    1,
                    1,
                    0,
                    0,
                    0,
                    0,
                    0,
                    0,
                    0,
                    0,
                    0,
                    0,
                    0,
                    0,
                    0,
                    0,
                    0,
                    0,
                    0,
                    0,
                    0,
                    0,
                    0,
                    0,
                    0,
                    0,
                    0,
                    1,
                    0,
                    0,
                    0,
                    0,
                    0,
                    0,
                    0,
                    1,
                    1,
                    0,
                    0,
                    0,
                    1,
                    1,
                    0,
                    0,
                    0,
                    0,
                    0,
                    0,
                    0,
                    0,
                    0,
                    0,
                    0,
                    0,
                    0,
                    0,
                    0,
                    0,
                    1,
                    0,
                    0,
                    1,
                    0,
                    0,
                    0,
                    0,
                    0,
                    1,
                    0,
                    0,
                    0,
                    0,
                    0,
                    0,
                    0,
                    0,
                    0,
                    1,
                    0,
                    0,
                    0,
                    0,
                    0,
                    0,
                    0,
                    0,
                    0,
                    1,
                    0,
                    1,
                    0,
                    0,
                    0,
                    0,
                    0,
                    0,
                    0,
                    0,
                    0,
                    1,
                    0,
                    0,
                    0,
                    0,
                    0
                ]
            }
        }
    ],
    "lower_detection_limit_log_ppm": -0.075462282,
    "upper_detection_limit_log_ppm": 2.225567713,
    "probe_material": [
        {
            "substance_name": "gold",
            "substance_type": "inorganic solid",
            "substance_descriptors": {
                "Number of Elements": 1,
                "Element Types": [
                    "Au"
                ],
                "Number of Atoms in Unit Cell": 1,
                "Lattice Parameter a (\u00c5)": "4.07",
                "Lattice Parameter b (\u00c5)": "4.07",
                "Lattice Parameter c (\u00c5)": "4.07",
                "Lattice Angle alpha (degrees)": "90",
                "Lattice Angle beta (degrees)": "90",
                "Lattice Angle gamma (degrees)": "90",
                "Unit Cell Volume (\u00c5\u00b3)": 18.14473805188449,
                "Density (g/cm\u00b3)": 18.02564918288778,
                "Space Group Number": 225,
                "Is Metallic (1/0)": 1,
                "Band Gap (eV)": 0.0,
                "Formation Energy per Atom (eV)": 0.0,
                "Energy Above Hull (eV/atom)": 0.0,
                "Energy per Atom (eV/atom)": -50.58496015,
                "Total Magnetization (\u03bcB)": 0.0,
                "Magnetic Ordering": "NM",
                "Bulk Modulus (GPa)": 134.195,
                "Shear Modulus (GPa)": -5.735,
                "Fermi Energy (eV)": 5.84744474,
                "Total Energy (eV)": -0.56995,
                "Crystal System": "cubic",
                "Magpie Descriptors": {
                    "MagpieData minimum Number": 79.0,
                    "MagpieData maximum Number": 79.0,
                    "MagpieData range Number": 0.0,
                    "MagpieData mean Number": 79.0,
                    "MagpieData avg_dev Number": 0.0,
                    "MagpieData mode Number": 79.0,
                    "MagpieData std_dev Number": 0,
                    "MagpieData minimum MendeleevNumber": 66.0,
                    "MagpieData maximum MendeleevNumber": 66.0,
                    "MagpieData range MendeleevNumber": 0.0,
                    "MagpieData mean MendeleevNumber": 66.0,
                    "MagpieData avg_dev MendeleevNumber": 0.0,
                    "MagpieData mode MendeleevNumber": 66.0,
                    "MagpieData std_dev MendeleevNumber": 0,
                    "MagpieData minimum AtomicWeight": 196.966569,
                    "MagpieData maximum AtomicWeight": 196.966569,
                    "MagpieData range AtomicWeight": 0.0,
                    "MagpieData mean AtomicWeight": 196.966569,
                    "MagpieData avg_dev AtomicWeight": 0.0,
                    "MagpieData mode AtomicWeight": 196.966569,
                    "MagpieData std_dev AtomicWeight": 0,
                    "MagpieData minimum MeltingT": 1337.33,
                    "MagpieData maximum MeltingT": 1337.33,
                    "MagpieData range MeltingT": 0.0,
                    "MagpieData mean MeltingT": 1337.33,
                    "MagpieData avg_dev MeltingT": 0.0,
                    "MagpieData mode MeltingT": 1337.33,
                    "MagpieData std_dev MeltingT": 0,
                    "MagpieData minimum Column": 11.0,
                    "MagpieData maximum Column": 11.0,
                    "MagpieData range Column": 0.0,
                    "MagpieData mean Column": 11.0,
                    "MagpieData avg_dev Column": 0.0,
                    "MagpieData mode Column": 11.0,
                    "MagpieData std_dev Column": 0,
                    "MagpieData minimum Row": 6.0,
                    "MagpieData maximum Row": 6.0,
                    "MagpieData range Row": 0.0,
                    "MagpieData mean Row": 6.0,
                    "MagpieData avg_dev Row": 0.0,
                    "MagpieData mode Row": 6.0,
                    "MagpieData std_dev Row": 0,
                    "MagpieData minimum CovalentRadius": 136.0,
                    "MagpieData maximum CovalentRadius": 136.0,
                    "MagpieData range CovalentRadius": 0.0,
                    "MagpieData mean CovalentRadius": 136.0,
                    "MagpieData avg_dev CovalentRadius": 0.0,
                    "MagpieData mode CovalentRadius": 136.0,
                    "MagpieData std_dev CovalentRadius": 0,
                    "MagpieData minimum Electronegativity": 2.54,
                    "MagpieData maximum Electronegativity": 2.54,
                    "MagpieData range Electronegativity": 0.0,
                    "MagpieData mean Electronegativity": 2.54,
                    "MagpieData avg_dev Electronegativity": 0.0,
                    "MagpieData mode Electronegativity": 2.54,
                    "MagpieData std_dev Electronegativity": 0,
                    "MagpieData minimum NsValence": 1.0,
                    "MagpieData maximum NsValence": 1.0,
                    "MagpieData range NsValence": 0.0,
                    "MagpieData mean NsValence": 1.0,
                    "MagpieData avg_dev NsValence": 0.0,
                    "MagpieData mode NsValence": 1.0,
                    "MagpieData std_dev NsValence": 0,
                    "MagpieData minimum NpValence": 0.0,
                    "MagpieData maximum NpValence": 0.0,
                    "MagpieData range NpValence": 0.0,
                    "MagpieData mean NpValence": 0.0,
                    "MagpieData avg_dev NpValence": 0.0,
                    "MagpieData mode NpValence": 0.0,
                    "MagpieData std_dev NpValence": 0,
                    "MagpieData minimum NdValence": 10.0,
                    "MagpieData maximum NdValence": 10.0,
                    "MagpieData range NdValence": 0.0,
                    "MagpieData mean NdValence": 10.0,
                    "MagpieData avg_dev NdValence": 0.0,
                    "MagpieData mode NdValence": 10.0,
                    "MagpieData std_dev NdValence": 0,
                    "MagpieData minimum NfValence": 14.0,
                    "MagpieData maximum NfValence": 14.0,
                    "MagpieData range NfValence": 0.0,
                    "MagpieData mean NfValence": 14.0,
                    "MagpieData avg_dev NfValence": 0.0,
                    "MagpieData mode NfValence": 14.0,
                    "MagpieData std_dev NfValence": 0,
                    "MagpieData minimum NValence": 25.0,
                    "MagpieData maximum NValence": 25.0,
                    "MagpieData range NValence": 0.0,
                    "MagpieData mean NValence": 25.0,
                    "MagpieData avg_dev NValence": 0.0,
                    "MagpieData mode NValence": 25.0,
                    "MagpieData std_dev NValence": 0,
                    "MagpieData minimum NsUnfilled": 1.0,
                    "MagpieData maximum NsUnfilled": 1.0,
                    "MagpieData range NsUnfilled": 0.0,
                    "MagpieData mean NsUnfilled": 1.0,
                    "MagpieData avg_dev NsUnfilled": 0.0,
                    "MagpieData mode NsUnfilled": 1.0,
                    "MagpieData std_dev NsUnfilled": 0,
                    "MagpieData minimum NpUnfilled": 0.0,
                    "MagpieData maximum NpUnfilled": 0.0,
                    "MagpieData range NpUnfilled": 0.0,
                    "MagpieData mean NpUnfilled": 0.0,
                    "MagpieData avg_dev NpUnfilled": 0.0,
                    "MagpieData mode NpUnfilled": 0.0,
                    "MagpieData std_dev NpUnfilled": 0,
                    "MagpieData minimum NdUnfilled": 0.0,
                    "MagpieData maximum NdUnfilled": 0.0,
                    "MagpieData range NdUnfilled": 0.0,
                    "MagpieData mean NdUnfilled": 0.0,
                    "MagpieData avg_dev NdUnfilled": 0.0,
                    "MagpieData mode NdUnfilled": 0.0,
                    "MagpieData std_dev NdUnfilled": 0,
                    "MagpieData minimum NfUnfilled": 0.0,
                    "MagpieData maximum NfUnfilled": 0.0,
                    "MagpieData range NfUnfilled": 0.0,
                    "MagpieData mean NfUnfilled": 0.0,
                    "MagpieData avg_dev NfUnfilled": 0.0,
                    "MagpieData mode NfUnfilled": 0.0,
                    "MagpieData std_dev NfUnfilled": 0,
                    "MagpieData minimum NUnfilled": 1.0,
                    "MagpieData maximum NUnfilled": 1.0,
                    "MagpieData range NUnfilled": 0.0,
                    "MagpieData mean NUnfilled": 1.0,
                    "MagpieData avg_dev NUnfilled": 0.0,
                    "MagpieData mode NUnfilled": 1.0,
                    "MagpieData std_dev NUnfilled": 0,
                    "MagpieData minimum GSvolume_pa": 16.7,
                    "MagpieData maximum GSvolume_pa": 16.7,
                    "MagpieData range GSvolume_pa": 0.0,
                    "MagpieData mean GSvolume_pa": 16.7,
                    "MagpieData avg_dev GSvolume_pa": 0.0,
                    "MagpieData mode GSvolume_pa": 16.7,
                    "MagpieData std_dev GSvolume_pa": 0,
                    "MagpieData minimum GSbandgap": 0.0,
                    "MagpieData maximum GSbandgap": 0.0,
                    "MagpieData range GSbandgap": 0.0,
                    "MagpieData mean GSbandgap": 0.0,
                    "MagpieData avg_dev GSbandgap": 0.0,
                    "MagpieData mode GSbandgap": 0.0,
                    "MagpieData std_dev GSbandgap": 0,
                    "MagpieData minimum GSmagmom": 0.0,
                    "MagpieData maximum GSmagmom": 0.0,
                    "MagpieData range GSmagmom": 0.0,
                    "MagpieData mean GSmagmom": 0.0,
                    "MagpieData avg_dev GSmagmom": 0.0,
                    "MagpieData mode GSmagmom": 0.0,
                    "MagpieData std_dev GSmagmom": 0,
                    "MagpieData minimum SpaceGroupNumber": 225.0,
                    "MagpieData maximum SpaceGroupNumber": 225.0,
                    "MagpieData range SpaceGroupNumber": 0.0,
                    "MagpieData mean SpaceGroupNumber": 225.0,
                    "MagpieData avg_dev SpaceGroupNumber": 0.0,
                    "MagpieData mode SpaceGroupNumber": 225.0,
                    "MagpieData std_dev SpaceGroupNumber": 0
                }
            }
        }
    ],
    "test_operating_temperature_celsius": 27.5,
    "min_pH_when_testing": 7.9,
    "max_pH_when_testing": 7.9,
    "test_medium_electrolyte": [
        {
            "substance_name": "sodium chloride",
            "substance_type": "small molecule",
            "substance_descriptors": {
                "CID": 5234,
                "MolecularFormula": "ClNa",
                "MolecularWeight": "58.44",
                "CanonicalSMILES": "[Na+].[Cl-]",
                "IsomericSMILES": "[Na+].[Cl-]",
                "InChI": "InChI=1S/ClH.Na/h1H;/q;+1/p-1",
                "InChIKey": "FAPWRFPIFSIZLT-UHFFFAOYSA-M",
                "IUPACName": "sodium;chloride",
                "ExactMass": "57.9586220",
                "MonoisotopicMass": "57.9586220",
                "TPSA": 0,
                "Complexity": 2,
                "Charge": 0,
                "HBondDonorCount": 0,
                "HBondAcceptorCount": 1,
                "RotatableBondCount": 0,
                "HeavyAtomCount": 2,
                "IsotopeAtomCount": 0,
                "AtomStereoCount": 0,
                "DefinedAtomStereoCount": 0,
                "UndefinedAtomStereoCount": 0,
                "BondStereoCount": 0,
                "DefinedBondStereoCount": 0,
                "UndefinedBondStereoCount": 0,
                "CovalentUnitCount": 2,
                "ConformerCount3D": 0,
                "Morgan_128": [
                    0,
                    0,
                    0,
                    0,
                    0,
                    0,
                    0,
                    0,
                    0,
                    0,
                    0,
                    0,
                    0,
                    0,
                    0,
                    0,
                    0,
                    0,
                    0,
                    0,
                    0,
                    0,
                    0,
                    0,
                    0,
                    0,
                    0,
                    0,
                    0,
                    0,
                    0,
                    0,
                    0,
                    0,
                    0,
                    0,
                    0,
                    0,
                    0,
                    0,
                    0,
                    0,
                    0,
                    0,
                    0,
                    0,
                    0,
                    0,
                    0,
                    0,
                    0,
                    0,
                    0,
                    0,
                    0,
                    0,
                    0,
                    0,
                    0,
                    0,
                    0,
                    1,
                    0,
                    0,
                    0,
                    0,
                    0,
                    0,
                    0,
                    0,
                    0,
                    0,
                    0,
                    0,
                    1,
                    0,
                    0,
                    0,
                    0,
                    0,
                    0,
                    0,
                    0,
                    0,
                    0,
                    0,
                    0,
                    0,
                    0,
                    0,
                    0,
                    0,
                    0,
                    0,
                    0,
                    0,
                    0,
                    0,
                    0,
                    0,
                    0,
                    0,
                    0,
                    0,
                    0,
                    0,
                    0,
                    0,
                    0,
                    0,
                    0,
                    0,
                    0,
                    0,
                    0,
                    0,
                    0,
                    0,
                    0,
                    0,
                    0,
                    0,
                    0,
                    0,
                    0,
                    0,
                    0,
                    0
                ]
            }
        },
        {
            "substance_name": "potassium chloride",
            "substance_type": "small molecule",
            "substance_descriptors": {
                "CID": 4873,
                "MolecularFormula": "ClK",
                "MolecularWeight": "74.55",
                "CanonicalSMILES": "[Cl-].[K+]",
                "IsomericSMILES": "[Cl-].[K+]",
                "InChI": "InChI=1S/ClH.K/h1H;/q;+1/p-1",
                "InChIKey": "WCUXLLCKKVVCTQ-UHFFFAOYSA-M",
                "IUPACName": "potassium;chloride",
                "ExactMass": "73.9325592",
                "MonoisotopicMass": "73.9325592",
                "TPSA": 0,
                "Complexity": 2,
                "Charge": 0,
                "HBondDonorCount": 0,
                "HBondAcceptorCount": 1,
                "RotatableBondCount": 0,
                "HeavyAtomCount": 2,
                "IsotopeAtomCount": 0,
                "AtomStereoCount": 0,
                "DefinedAtomStereoCount": 0,
                "UndefinedAtomStereoCount": 0,
                "BondStereoCount": 0,
                "DefinedBondStereoCount": 0,
                "UndefinedBondStereoCount": 0,
                "CovalentUnitCount": 2,
                "ConformerCount3D": 0,
                "Morgan_128": [
                    0,
                    0,
                    0,
                    0,
                    0,
                    0,
                    0,
                    0,
                    0,
                    0,
                    0,
                    0,
                    0,
                    0,
                    0,
                    0,
                    0,
                    0,
                    0,
                    0,
                    0,
                    0,
                    0,
                    0,
                    0,
                    0,
                    0,
                    0,
                    0,
                    0,
                    0,
                    0,
                    0,
                    0,
                    0,
                    0,
                    0,
                    0,
                    0,
                    0,
                    0,
                    0,
                    0,
                    0,
                    0,
                    0,
                    0,
                    0,
                    0,
                    0,
                    0,
                    0,
                    0,
                    0,
                    0,
                    0,
                    0,
                    0,
                    0,
                    0,
                    0,
                    0,
                    0,
                    0,
                    0,
                    0,
                    0,
                    0,
                    0,
                    0,
                    0,
                    0,
                    0,
                    0,
                    1,
                    0,
                    0,
                    0,
                    0,
                    0,
                    0,
                    0,
                    0,
                    1,
                    0,
                    0,
                    0,
                    0,
                    0,
                    0,
                    0,
                    0,
                    0,
                    0,
                    0,
                    0,
                    0,
                    0,
                    0,
                    0,
                    0,
                    0,
                    0,
                    0,
                    0,
                    0,
                    0,
                    0,
                    0,
                    0,
                    0,
                    0,
                    0,
                    0,
                    0,
                    0,
                    0,
                    0,
                    0,
                    0,
                    0,
                    0,
                    0,
                    0,
                    0,
                    0,
                    0,
                    0
                ]
            }
        },
        {
            "substance_name": "disodium phosphate",
            "substance_type": "small molecule",
            "substance_descriptors": {
                "CID": 24203,
                "MolecularFormula": "HNa2O4P",
                "MolecularWeight": "141.959",
                "CanonicalSMILES": "OP(=O)([O-])[O-].[Na+].[Na+]",
                "IsomericSMILES": "OP(=O)([O-])[O-].[Na+].[Na+]",
                "InChI": "InChI=1S/2Na.H3O4P/c;;1-5(2,3)4/h;;(H3,1,2,3,4)/q2*+1;/p-2",
                "InChIKey": "BNIILDVGGAEEIG-UHFFFAOYSA-L",
                "IUPACName": "disodium;hydrogen phosphate",
                "ExactMass": "141.94078407",
                "MonoisotopicMass": "141.94078407",
                "TPSA": 83.4,
                "Complexity": 46,
                "Charge": 0,
                "HBondDonorCount": 1,
                "HBondAcceptorCount": 4,
                "RotatableBondCount": 0,
                "HeavyAtomCount": 7,
                "IsotopeAtomCount": 0,
                "AtomStereoCount": 0,
                "DefinedAtomStereoCount": 0,
                "UndefinedAtomStereoCount": 0,
                "BondStereoCount": 0,
                "DefinedBondStereoCount": 0,
                "UndefinedBondStereoCount": 0,
                "CovalentUnitCount": 3,
                "ConformerCount3D": 0,
                "Morgan_128": [
                    0,
                    0,
                    0,
                    0,
                    0,
                    0,
                    0,
                    0,
                    0,
                    0,
                    1,
                    0,
                    0,
                    0,
                    0,
                    0,
                    0,
                    0,
                    0,
                    0,
                    0,
                    0,
                    0,
                    0,
                    0,
                    0,
                    0,
                    0,
                    0,
                    0,
                    0,
                    0,
                    0,
                    0,
                    0,
                    0,
                    0,
                    0,
                    0,
                    1,
                    0,
                    0,
                    0,
                    0,
                    0,
                    0,
                    1,
                    0,
                    0,
                    0,
                    0,
                    1,
                    0,
                    0,
                    0,
                    0,
                    0,
                    0,
                    0,
                    0,
                    0,
                    1,
                    0,
                    0,
                    1,
                    0,
                    0,
                    0,
                    0,
                    0,
                    0,
                    0,
                    0,
                    0,
                    0,
                    1,
                    0,
                    0,
                    0,
                    0,
                    1,
                    0,
                    0,
                    0,
                    0,
                    0,
                    0,
                    0,
                    0,
                    0,
                    0,
                    0,
                    0,
                    0,
                    0,
                    0,
                    0,
                    0,
                    0,
                    0,
                    0,
                    0,
                    1,
                    0,
                    0,
                    0,
                    0,
                    0,
                    0,
                    0,
                    0,
                    0,
                    0,
                    0,
                    0,
                    0,
                    0,
                    0,
                    0,
                    0,
                    0,
                    0,
                    0,
                    0,
                    0,
                    0,
                    0,
                    0
                ]
            }
        },
        {
            "substance_name": "monopotassium phosphate",
            "substance_type": "small molecule",
            "substance_descriptors": {
                "CID": 516951,
                "MolecularFormula": "H2KO4P",
                "MolecularWeight": "136.086",
                "CanonicalSMILES": "OP(=O)(O)[O-].[K+]",
                "IsomericSMILES": "OP(=O)(O)[O-].[K+]",
                "InChI": "InChI=1S/K.H3O4P/c;1-5(2,3)4/h;(H3,1,2,3,4)/q+1;/p-1",
                "InChIKey": "GNSKLFRGEWLPPA-UHFFFAOYSA-M",
                "IUPACName": "potassium;dihydrogen phosphate",
                "ExactMass": "135.93277702",
                "MonoisotopicMass": "135.93277702",
                "TPSA": 80.6,
                "Complexity": 61,
                "Charge": 0,
                "HBondDonorCount": 2,
                "HBondAcceptorCount": 4,
                "RotatableBondCount": 0,
                "HeavyAtomCount": 6,
                "IsotopeAtomCount": 0,
                "AtomStereoCount": 0,
                "DefinedAtomStereoCount": 0,
                "UndefinedAtomStereoCount": 0,
                "BondStereoCount": 0,
                "DefinedBondStereoCount": 0,
                "UndefinedBondStereoCount": 0,
                "CovalentUnitCount": 2,
                "ConformerCount3D": 0,
                "Morgan_128": [
                    1,
                    0,
                    0,
                    0,
                    0,
                    0,
                    0,
                    0,
                    0,
                    0,
                    1,
                    0,
                    0,
                    0,
                    0,
                    0,
                    0,
                    0,
                    0,
                    0,
                    0,
                    0,
                    0,
                    0,
                    0,
                    0,
                    0,
                    0,
                    0,
                    0,
                    0,
                    0,
                    0,
                    0,
                    0,
                    0,
                    0,
                    0,
                    0,
                    1,
                    0,
                    0,
                    0,
                    0,
                    0,
                    0,
                    1,
                    0,
                    0,
                    0,
                    0,
                    1,
                    0,
                    0,
                    0,
                    0,
                    0,
                    0,
                    0,
                    0,
                    0,
                    0,
                    0,
                    0,
                    1,
                    0,
                    0,
                    0,
                    0,
                    0,
                    0,
                    0,
                    0,
                    0,
                    0,
                    1,
                    0,
                    0,
                    0,
                    0,
                    0,
                    0,
                    0,
                    1,
                    0,
                    0,
                    0,
                    0,
                    0,
                    0,
                    0,
                    0,
                    0,
                    0,
                    0,
                    0,
                    0,
                    0,
                    0,
                    0,
                    0,
                    0,
                    1,
                    0,
                    0,
                    0,
                    0,
                    0,
                    0,
                    0,
                    0,
                    0,
                    0,
                    0,
                    0,
                    0,
                    0,
                    0,
                    0,
                    0,
                    0,
                    0,
                    0,
                    0,
                    0,
                    0,
                    0,
                    0
                ]
            }
        },
        {
            "substance_name": "water",
            "substance_type": "small molecule",
            "substance_descriptors": {
                "CID": 962,
                "MolecularFormula": "H2O",
                "MolecularWeight": "18.015",
                "CanonicalSMILES": "O",
                "IsomericSMILES": "O",
                "InChI": "InChI=1S/H2O/h1H2",
                "InChIKey": "XLYOFNOQVPJJNP-UHFFFAOYSA-N",
                "IUPACName": "oxidane",
                "XLogP": -0.5,
                "ExactMass": "18.010564683",
                "MonoisotopicMass": "18.010564683",
                "TPSA": 1,
                "Complexity": 0,
                "Charge": 0,
                "HBondDonorCount": 1,
                "HBondAcceptorCount": 1,
                "RotatableBondCount": 0,
                "HeavyAtomCount": 1,
                "IsotopeAtomCount": 0,
                "AtomStereoCount": 0,
                "DefinedAtomStereoCount": 0,
                "UndefinedAtomStereoCount": 0,
                "BondStereoCount": 0,
                "DefinedBondStereoCount": 0,
                "UndefinedBondStereoCount": 0,
                "CovalentUnitCount": 1,
                "Volume3D": 14.7,
                "XStericQuadrupole3D": 0.49,
                "YStericQuadrupole3D": 0.49,
                "ZStericQuadrupole3D": 0.49,
                "FeatureAcceptorCount3D": 1,
                "FeatureDonorCount3D": 1,
                "FeatureAnionCount3D": 0,
                "FeatureCationCount3D": 0,
                "FeatureRingCount3D": 0,
                "FeatureHydrophobeCount3D": 0,
                "ConformerModelRMSD3D": 0.4,
                "EffectiveRotorCount3D": 0,
                "ConformerCount3D": 1,
                "Morgan_128": [
                    0,
                    0,
                    0,
                    0,
                    0,
                    0,
                    0,
                    0,
                    0,
                    0,
                    0,
                    0,
                    0,
                    0,
                    0,
                    0,
                    0,
                    0,
                    0,
                    0,
                    0,
                    0,
                    1,
                    0,
                    0,
                    0,
                    0,
                    0,
                    0,
                    0,
                    0,
                    0,
                    0,
                    0,
                    0,
                    0,
                    0,
                    0,
                    0,
                    0,
                    0,
                    0,
                    0,
                    0,
                    0,
                    0,
                    0,
                    0,
                    0,
                    0,
                    0,
                    0,
                    0,
                    0,
                    0,
                    0,
                    0,
                    0,
                    0,
                    0,
                    0,
                    0,
                    0,
                    0,
                    0,
                    0,
                    0,
                    0,
                    0,
                    0,
                    0,
                    0,
                    0,
                    0,
                    0,
                    0,
                    0,
                    0,
                    0,
                    0,
                    0,
                    0,
                    0,
                    0,
                    0,
                    0,
                    0,
                    0,
                    0,
                    0,
                    0,
                    0,
                    0,
                    0,
                    0,
                    0,
                    0,
                    0,
                    0,
                    0,
                    0,
                    0,
                    0,
                    0,
                    0,
                    0,
                    0,
                    0,
                    0,
                    0,
                    0,
                    0,
                    0,
                    0,
                    0,
                    0,
                    0,
                    0,
                    0,
                    0,
                    0,
                    0,
                    0,
                    0,
                    0,
                    0,
                    0,
                    0
                ]
            }
        }
    ],
    "LDL_ranking": 1.0,
    "UDL_ranking": 1.0,
    "LDL_category": "High Detection (Lower Sensitivity)",
    "UDL_category": "Moderate UDL Range"
}