{
    "DOI": "10.1021/jp506644w",
    "sensor_type": "gas",
    "detect_target": [
        {
            "substance_name": "sulfur dioxide",
            "substance_type": "small molecule",
            "substance_descriptors": {
                "CID": 1119,
                "MolecularFormula": "O2S",
                "MolecularWeight": "64.07",
                "CanonicalSMILES": "O=S=O",
                "IsomericSMILES": "O=S=O",
                "InChI": "InChI=1S/O2S/c1-3-2",
                "InChIKey": "RAHZWNYVWXNFOC-UHFFFAOYSA-N",
                "IUPACName": "sulfur dioxide",
                "XLogP": 0.1,
                "ExactMass": "63.96190041",
                "MonoisotopicMass": "63.96190041",
                "TPSA": 35.1,
                "Complexity": 18,
                "Charge": 0,
                "HBondDonorCount": 0,
                "HBondAcceptorCount": 3,
                "RotatableBondCount": 0,
                "HeavyAtomCount": 3,
                "IsotopeAtomCount": 0,
                "AtomStereoCount": 0,
                "DefinedAtomStereoCount": 0,
                "UndefinedAtomStereoCount": 0,
                "BondStereoCount": 0,
                "DefinedBondStereoCount": 0,
                "UndefinedBondStereoCount": 0,
                "CovalentUnitCount": 1,
                "Volume3D": 41.3,
                "XStericQuadrupole3D": 1.52,
                "YStericQuadrupole3D": 0.77,
                "ZStericQuadrupole3D": 0.58,
                "FeatureAcceptorCount3D": 0,
                "FeatureDonorCount3D": 0,
                "FeatureAnionCount3D": 0,
                "FeatureCationCount3D": 0,
                "FeatureRingCount3D": 0,
                "FeatureHydrophobeCount3D": 0,
                "ConformerModelRMSD3D": 0.4,
                "EffectiveRotorCount3D": 0,
                "ConformerCount3D": 1,
                "Morgan_128": [
                    0,
                    0,
                    0,
                    0,
                    0,
                    0,
                    0,
                    0,
                    0,
                    0,
                    1,
                    0,
                    0,
                    0,
                    0,
                    0,
                    0,
                    0,
                    0,
                    0,
                    0,
                    0,
                    0,
                    0,
                    0,
                    0,
                    0,
                    0,
                    0,
                    0,
                    0,
                    0,
                    0,
                    0,
                    0,
                    0,
                    0,
                    0,
                    0,
                    0,
                    0,
                    0,
                    1,
                    0,
                    0,
                    0,
                    0,
                    0,
                    0,
                    0,
                    0,
                    0,
                    0,
                    0,
                    0,
                    0,
                    1,
                    0,
                    0,
                    0,
                    0,
                    0,
                    0,
                    0,
                    0,
                    0,
                    0,
                    0,
                    0,
                    0,
                    0,
                    0,
                    0,
                    0,
                    0,
                    0,
                    0,
                    0,
                    0,
                    0,
                    0,
                    0,
                    0,
                    0,
                    0,
                    0,
                    0,
                    0,
                    0,
                    0,
                    0,
                    0,
                    0,
                    0,
                    0,
                    0,
                    0,
                    0,
                    0,
                    0,
                    0,
                    0,
                    0,
                    0,
                    0,
                    0,
                    0,
                    0,
                    0,
                    0,
                    0,
                    0,
                    0,
                    0,
                    0,
                    0,
                    1,
                    0,
                    0,
                    0,
                    0,
                    0,
                    0,
                    0,
                    0,
                    0,
                    0,
                    0
                ]
            }
        }
    ],
    "lower_detection_limit_log_ppm": 1.0,
    "upper_detection_limit_log_ppm": 1.698970004,
    "probe_material": [
        {
            "substance_name": "platinum",
            "substance_type": "inorganic solid",
            "substance_descriptors": {
                "Number of Elements": 1,
                "Element Types": [
                    "Pt"
                ],
                "Number of Atoms in Unit Cell": 1,
                "Lattice Parameter a (\u00c5)": "3.944",
                "Lattice Parameter b (\u00c5)": "3.944",
                "Lattice Parameter c (\u00c5)": "3.944",
                "Lattice Angle alpha (degrees)": "90",
                "Lattice Angle beta (degrees)": "90",
                "Lattice Angle gamma (degrees)": "90",
                "Unit Cell Volume (\u00c5\u00b3)": 15.327454053856243,
                "Density (g/cm\u00b3)": 21.134925743724082,
                "Space Group Number": 225,
                "Is Metallic (1/0)": 1,
                "Band Gap (eV)": 0.0,
                "Formation Energy per Atom (eV)": 0.0,
                "Energy Above Hull (eV/atom)": 0.0,
                "Energy per Atom (eV/atom)": -51.4877169,
                "Total Magnetization (\u03bcB)": 0.00505,
                "Magnetic Ordering": "NM",
                "Bulk Modulus (GPa)": 248.014,
                "Shear Modulus (GPa)": 49.52,
                "Fermi Energy (eV)": 7.2851128,
                "Total Energy (eV)": -3.49386,
                "Crystal System": "cubic",
                "Magpie Descriptors": {
                    "MagpieData minimum Number": 78.0,
                    "MagpieData maximum Number": 78.0,
                    "MagpieData range Number": 0.0,
                    "MagpieData mean Number": 78.0,
                    "MagpieData avg_dev Number": 0.0,
                    "MagpieData mode Number": 78.0,
                    "MagpieData std_dev Number": 0,
                    "MagpieData minimum MendeleevNumber": 63.0,
                    "MagpieData maximum MendeleevNumber": 63.0,
                    "MagpieData range MendeleevNumber": 0.0,
                    "MagpieData mean MendeleevNumber": 63.0,
                    "MagpieData avg_dev MendeleevNumber": 0.0,
                    "MagpieData mode MendeleevNumber": 63.0,
                    "MagpieData std_dev MendeleevNumber": 0,
                    "MagpieData minimum AtomicWeight": 195.084,
                    "MagpieData maximum AtomicWeight": 195.084,
                    "MagpieData range AtomicWeight": 0.0,
                    "MagpieData mean AtomicWeight": 195.084,
                    "MagpieData avg_dev AtomicWeight": 0.0,
                    "MagpieData mode AtomicWeight": 195.084,
                    "MagpieData std_dev AtomicWeight": 0,
                    "MagpieData minimum MeltingT": 2041.4,
                    "MagpieData maximum MeltingT": 2041.4,
                    "MagpieData range MeltingT": 0.0,
                    "MagpieData mean MeltingT": 2041.4,
                    "MagpieData avg_dev MeltingT": 0.0,
                    "MagpieData mode MeltingT": 2041.4,
                    "MagpieData std_dev MeltingT": 0,
                    "MagpieData minimum Column": 10.0,
                    "MagpieData maximum Column": 10.0,
                    "MagpieData range Column": 0.0,
                    "MagpieData mean Column": 10.0,
                    "MagpieData avg_dev Column": 0.0,
                    "MagpieData mode Column": 10.0,
                    "MagpieData std_dev Column": 0,
                    "MagpieData minimum Row": 6.0,
                    "MagpieData maximum Row": 6.0,
                    "MagpieData range Row": 0.0,
                    "MagpieData mean Row": 6.0,
                    "MagpieData avg_dev Row": 0.0,
                    "MagpieData mode Row": 6.0,
                    "MagpieData std_dev Row": 0,
                    "MagpieData minimum CovalentRadius": 136.0,
                    "MagpieData maximum CovalentRadius": 136.0,
                    "MagpieData range CovalentRadius": 0.0,
                    "MagpieData mean CovalentRadius": 136.0,
                    "MagpieData avg_dev CovalentRadius": 0.0,
                    "MagpieData mode CovalentRadius": 136.0,
                    "MagpieData std_dev CovalentRadius": 0,
                    "MagpieData minimum Electronegativity": 2.28,
                    "MagpieData maximum Electronegativity": 2.28,
                    "MagpieData range Electronegativity": 0.0,
                    "MagpieData mean Electronegativity": 2.28,
                    "MagpieData avg_dev Electronegativity": 0.0,
                    "MagpieData mode Electronegativity": 2.28,
                    "MagpieData std_dev Electronegativity": 0,
                    "MagpieData minimum NsValence": 1.0,
                    "MagpieData maximum NsValence": 1.0,
                    "MagpieData range NsValence": 0.0,
                    "MagpieData mean NsValence": 1.0,
                    "MagpieData avg_dev NsValence": 0.0,
                    "MagpieData mode NsValence": 1.0,
                    "MagpieData std_dev NsValence": 0,
                    "MagpieData minimum NpValence": 0.0,
                    "MagpieData maximum NpValence": 0.0,
                    "MagpieData range NpValence": 0.0,
                    "MagpieData mean NpValence": 0.0,
                    "MagpieData avg_dev NpValence": 0.0,
                    "MagpieData mode NpValence": 0.0,
                    "MagpieData std_dev NpValence": 0,
                    "MagpieData minimum NdValence": 9.0,
                    "MagpieData maximum NdValence": 9.0,
                    "MagpieData range NdValence": 0.0,
                    "MagpieData mean NdValence": 9.0,
                    "MagpieData avg_dev NdValence": 0.0,
                    "MagpieData mode NdValence": 9.0,
                    "MagpieData std_dev NdValence": 0,
                    "MagpieData minimum NfValence": 14.0,
                    "MagpieData maximum NfValence": 14.0,
                    "MagpieData range NfValence": 0.0,
                    "MagpieData mean NfValence": 14.0,
                    "MagpieData avg_dev NfValence": 0.0,
                    "MagpieData mode NfValence": 14.0,
                    "MagpieData std_dev NfValence": 0,
                    "MagpieData minimum NValence": 24.0,
                    "MagpieData maximum NValence": 24.0,
                    "MagpieData range NValence": 0.0,
                    "MagpieData mean NValence": 24.0,
                    "MagpieData avg_dev NValence": 0.0,
                    "MagpieData mode NValence": 24.0,
                    "MagpieData std_dev NValence": 0,
                    "MagpieData minimum NsUnfilled": 1.0,
                    "MagpieData maximum NsUnfilled": 1.0,
                    "MagpieData range NsUnfilled": 0.0,
                    "MagpieData mean NsUnfilled": 1.0,
                    "MagpieData avg_dev NsUnfilled": 0.0,
                    "MagpieData mode NsUnfilled": 1.0,
                    "MagpieData std_dev NsUnfilled": 0,
                    "MagpieData minimum NpUnfilled": 0.0,
                    "MagpieData maximum NpUnfilled": 0.0,
                    "MagpieData range NpUnfilled": 0.0,
                    "MagpieData mean NpUnfilled": 0.0,
                    "MagpieData avg_dev NpUnfilled": 0.0,
                    "MagpieData mode NpUnfilled": 0.0,
                    "MagpieData std_dev NpUnfilled": 0,
                    "MagpieData minimum NdUnfilled": 1.0,
                    "MagpieData maximum NdUnfilled": 1.0,
                    "MagpieData range NdUnfilled": 0.0,
                    "MagpieData mean NdUnfilled": 1.0,
                    "MagpieData avg_dev NdUnfilled": 0.0,
                    "MagpieData mode NdUnfilled": 1.0,
                    "MagpieData std_dev NdUnfilled": 0,
                    "MagpieData minimum NfUnfilled": 0.0,
                    "MagpieData maximum NfUnfilled": 0.0,
                    "MagpieData range NfUnfilled": 0.0,
                    "MagpieData mean NfUnfilled": 0.0,
                    "MagpieData avg_dev NfUnfilled": 0.0,
                    "MagpieData mode NfUnfilled": 0.0,
                    "MagpieData std_dev NfUnfilled": 0,
                    "MagpieData minimum NUnfilled": 2.0,
                    "MagpieData maximum NUnfilled": 2.0,
                    "MagpieData range NUnfilled": 0.0,
                    "MagpieData mean NUnfilled": 2.0,
                    "MagpieData avg_dev NUnfilled": 0.0,
                    "MagpieData mode NUnfilled": 2.0,
                    "MagpieData std_dev NUnfilled": 0,
                    "MagpieData minimum GSvolume_pa": 15.02,
                    "MagpieData maximum GSvolume_pa": 15.02,
                    "MagpieData range GSvolume_pa": 0.0,
                    "MagpieData mean GSvolume_pa": 15.02,
                    "MagpieData avg_dev GSvolume_pa": 0.0,
                    "MagpieData mode GSvolume_pa": 15.02,
                    "MagpieData std_dev GSvolume_pa": 0,
                    "MagpieData minimum GSbandgap": 0.0,
                    "MagpieData maximum GSbandgap": 0.0,
                    "MagpieData range GSbandgap": 0.0,
                    "MagpieData mean GSbandgap": 0.0,
                    "MagpieData avg_dev GSbandgap": 0.0,
                    "MagpieData mode GSbandgap": 0.0,
                    "MagpieData std_dev GSbandgap": 0,
                    "MagpieData minimum GSmagmom": 0.0,
                    "MagpieData maximum GSmagmom": 0.0,
                    "MagpieData range GSmagmom": 0.0,
                    "MagpieData mean GSmagmom": 0.0,
                    "MagpieData avg_dev GSmagmom": 0.0,
                    "MagpieData mode GSmagmom": 0.0,
                    "MagpieData std_dev GSmagmom": 0,
                    "MagpieData minimum SpaceGroupNumber": 225.0,
                    "MagpieData maximum SpaceGroupNumber": 225.0,
                    "MagpieData range SpaceGroupNumber": 0.0,
                    "MagpieData mean SpaceGroupNumber": 225.0,
                    "MagpieData avg_dev SpaceGroupNumber": 0.0,
                    "MagpieData mode SpaceGroupNumber": 225.0,
                    "MagpieData std_dev SpaceGroupNumber": 0
                }
            }
        },
        {
            "substance_name": "silicon dioxide",
            "substance_type": "inorganic solid",
            "substance_descriptors": {
                "Number of Elements": 2,
                "Element Types": [
                    "O",
                    "Si"
                ],
                "Number of Atoms in Unit Cell": 9,
                "Lattice Parameter a (\u00c5)": "4.913",
                "Lattice Parameter b (\u00c5)": "4.913",
                "Lattice Parameter c (\u00c5)": "5.404",
                "Lattice Angle alpha (degrees)": "90",
                "Lattice Angle beta (degrees)": "90",
                "Lattice Angle gamma (degrees)": "120",
                "Unit Cell Volume (\u00c5\u00b3)": 113.71113006405524,
                "Density (g/cm\u00b3)": 2.6322575648428894,
                "Space Group Number": 205,
                "Band Gap (eV)": 5.6695,
                "Is Metallic (1/0)": 0,
                "Formation Energy per Atom (eV)": -3.0451923161111107,
                "Energy Above Hull (eV/atom)": 0.0006257044444453186,
                "Energy per Atom (eV/atom)": -9.943547531111111,
                "Total Magnetization (\u03bcB)": 0.0,
                "Magnetic Ordering": "NM",
                "Bulk Modulus (GPa)": 33.568,
                "Shear Modulus (GPa)": 46.226,
                "Fermi Energy (eV)": 0.66083877,
                "Total Energy (eV)": -5.95789,
                "Crystal System": "cubic",
                "Magpie Descriptors": {
                    "MagpieData minimum Number": 8.0,
                    "MagpieData maximum Number": 14.0,
                    "MagpieData range Number": 6.0,
                    "MagpieData mean Number": 11.999999999999998,
                    "MagpieData avg_dev Number": 2.666666666666667,
                    "MagpieData mode Number": 14.0,
                    "MagpieData std_dev Number": 4.242640687119285,
                    "MagpieData minimum MendeleevNumber": 78.0,
                    "MagpieData maximum MendeleevNumber": 87.0,
                    "MagpieData range MendeleevNumber": 9.0,
                    "MagpieData mean MendeleevNumber": 81.0,
                    "MagpieData avg_dev MendeleevNumber": 4.0,
                    "MagpieData mode MendeleevNumber": 78.0,
                    "MagpieData std_dev MendeleevNumber": 6.363961030678928,
                    "MagpieData minimum AtomicWeight": 15.9994,
                    "MagpieData maximum AtomicWeight": 28.0855,
                    "MagpieData range AtomicWeight": 12.0861,
                    "MagpieData mean AtomicWeight": 24.0568,
                    "MagpieData avg_dev AtomicWeight": 5.3716,
                    "MagpieData mode AtomicWeight": 28.0855,
                    "MagpieData std_dev AtomicWeight": 8.546163268098733,
                    "MagpieData minimum MeltingT": 54.8,
                    "MagpieData maximum MeltingT": 1687.0,
                    "MagpieData range MeltingT": 1632.2,
                    "MagpieData mean MeltingT": 1142.9333333333332,
                    "MagpieData avg_dev MeltingT": 725.4222222222222,
                    "MagpieData mode MeltingT": 1687.0,
                    "MagpieData std_dev MeltingT": 1154.1396882526828,
                    "MagpieData minimum Column": 14.0,
                    "MagpieData maximum Column": 16.0,
                    "MagpieData range Column": 2.0,
                    "MagpieData mean Column": 14.666666666666664,
                    "MagpieData avg_dev Column": 0.8888888888888881,
                    "MagpieData mode Column": 14.0,
                    "MagpieData std_dev Column": 1.4142135623730951,
                    "MagpieData minimum Row": 2.0,
                    "MagpieData maximum Row": 3.0,
                    "MagpieData range Row": 1.0,
                    "MagpieData mean Row": 2.6666666666666665,
                    "MagpieData avg_dev Row": 0.4444444444444445,
                    "MagpieData mode Row": 3.0,
                    "MagpieData std_dev Row": 0.7071067811865476,
                    "MagpieData minimum CovalentRadius": 66.0,
                    "MagpieData maximum CovalentRadius": 111.0,
                    "MagpieData range CovalentRadius": 45.0,
                    "MagpieData mean CovalentRadius": 96.0,
                    "MagpieData avg_dev CovalentRadius": 20.0,
                    "MagpieData mode CovalentRadius": 111.0,
                    "MagpieData std_dev CovalentRadius": 31.81980515339464,
                    "MagpieData minimum Electronegativity": 1.9,
                    "MagpieData maximum Electronegativity": 3.44,
                    "MagpieData range Electronegativity": 1.54,
                    "MagpieData mean Electronegativity": 2.413333333333333,
                    "MagpieData avg_dev Electronegativity": 0.6844444444444444,
                    "MagpieData mode Electronegativity": 1.9,
                    "MagpieData std_dev Electronegativity": 1.0889444430272832,
                    "MagpieData minimum NsValence": 2.0,
                    "MagpieData maximum NsValence": 2.0,
                    "MagpieData range NsValence": 0.0,
                    "MagpieData mean NsValence": 2.0,
                    "MagpieData avg_dev NsValence": 0.0,
                    "MagpieData mode NsValence": 2.0,
                    "MagpieData std_dev NsValence": 0.0,
                    "MagpieData minimum NpValence": 2.0,
                    "MagpieData maximum NpValence": 4.0,
                    "MagpieData range NpValence": 2.0,
                    "MagpieData mean NpValence": 2.6666666666666665,
                    "MagpieData avg_dev NpValence": 0.8888888888888888,
                    "MagpieData mode NpValence": 2.0,
                    "MagpieData std_dev NpValence": 1.4142135623730951,
                    "MagpieData minimum NdValence": 0.0,
                    "MagpieData maximum NdValence": 0.0,
                    "MagpieData range NdValence": 0.0,
                    "MagpieData mean NdValence": 0.0,
                    "MagpieData avg_dev NdValence": 0.0,
                    "MagpieData mode NdValence": 0.0,
                    "MagpieData std_dev NdValence": 0.0,
                    "MagpieData minimum NfValence": 0.0,
                    "MagpieData maximum NfValence": 0.0,
                    "MagpieData range NfValence": 0.0,
                    "MagpieData mean NfValence": 0.0,
                    "MagpieData avg_dev NfValence": 0.0,
                    "MagpieData mode NfValence": 0.0,
                    "MagpieData std_dev NfValence": 0.0,
                    "MagpieData minimum NValence": 4.0,
                    "MagpieData maximum NValence": 6.0,
                    "MagpieData range NValence": 2.0,
                    "MagpieData mean NValence": 4.666666666666666,
                    "MagpieData avg_dev NValence": 0.8888888888888886,
                    "MagpieData mode NValence": 4.0,
                    "MagpieData std_dev NValence": 1.4142135623730951,
                    "MagpieData minimum NsUnfilled": 0.0,
                    "MagpieData maximum NsUnfilled": 0.0,
                    "MagpieData range NsUnfilled": 0.0,
                    "MagpieData mean NsUnfilled": 0.0,
                    "MagpieData avg_dev NsUnfilled": 0.0,
                    "MagpieData mode NsUnfilled": 0.0,
                    "MagpieData std_dev NsUnfilled": 0.0,
                    "MagpieData minimum NpUnfilled": 2.0,
                    "MagpieData maximum NpUnfilled": 4.0,
                    "MagpieData range NpUnfilled": 2.0,
                    "MagpieData mean NpUnfilled": 3.333333333333333,
                    "MagpieData avg_dev NpUnfilled": 0.888888888888889,
                    "MagpieData mode NpUnfilled": 4.0,
                    "MagpieData std_dev NpUnfilled": 1.4142135623730951,
                    "MagpieData minimum NdUnfilled": 0.0,
                    "MagpieData maximum NdUnfilled": 0.0,
                    "MagpieData range NdUnfilled": 0.0,
                    "MagpieData mean NdUnfilled": 0.0,
                    "MagpieData avg_dev NdUnfilled": 0.0,
                    "MagpieData mode NdUnfilled": 0.0,
                    "MagpieData std_dev NdUnfilled": 0.0,
                    "MagpieData minimum NfUnfilled": 0.0,
                    "MagpieData maximum NfUnfilled": 0.0,
                    "MagpieData range NfUnfilled": 0.0,
                    "MagpieData mean NfUnfilled": 0.0,
                    "MagpieData avg_dev NfUnfilled": 0.0,
                    "MagpieData mode NfUnfilled": 0.0,
                    "MagpieData std_dev NfUnfilled": 0.0,
                    "MagpieData minimum NUnfilled": 2.0,
                    "MagpieData maximum NUnfilled": 4.0,
                    "MagpieData range NUnfilled": 2.0,
                    "MagpieData mean NUnfilled": 3.333333333333333,
                    "MagpieData avg_dev NUnfilled": 0.888888888888889,
                    "MagpieData mode NUnfilled": 4.0,
                    "MagpieData std_dev NUnfilled": 1.4142135623730951,
                    "MagpieData minimum GSvolume_pa": 9.105,
                    "MagpieData maximum GSvolume_pa": 20.44,
                    "MagpieData range GSvolume_pa": 11.335,
                    "MagpieData mean GSvolume_pa": 16.66166666666667,
                    "MagpieData avg_dev GSvolume_pa": 5.0377777777777775,
                    "MagpieData mode GSvolume_pa": 20.44,
                    "MagpieData std_dev GSvolume_pa": 8.015055364749516,
                    "MagpieData minimum GSbandgap": 0.0,
                    "MagpieData maximum GSbandgap": 0.773,
                    "MagpieData range GSbandgap": 0.773,
                    "MagpieData mean GSbandgap": 0.5153333333333333,
                    "MagpieData avg_dev GSbandgap": 0.34355555555555556,
                    "MagpieData mode GSbandgap": 0.773,
                    "MagpieData std_dev GSbandgap": 0.5465935418572012,
                    "MagpieData minimum GSmagmom": 0.0,
                    "MagpieData maximum GSmagmom": 0.0,
                    "MagpieData range GSmagmom": 0.0,
                    "MagpieData mean GSmagmom": 0.0,
                    "MagpieData avg_dev GSmagmom": 0.0,
                    "MagpieData mode GSmagmom": 0.0,
                    "MagpieData std_dev GSmagmom": 0.0,
                    "MagpieData minimum SpaceGroupNumber": 12.0,
                    "MagpieData maximum SpaceGroupNumber": 227.0,
                    "MagpieData range SpaceGroupNumber": 215.0,
                    "MagpieData mean SpaceGroupNumber": 155.33333333333331,
                    "MagpieData avg_dev SpaceGroupNumber": 95.55555555555556,
                    "MagpieData mode SpaceGroupNumber": 227.0,
                    "MagpieData std_dev SpaceGroupNumber": 152.02795795510772
                }
            }
        }
    ],
    "test_operating_temperature_celsius": 200.0,
    "min_pH_when_testing": -1.0,
    "max_pH_when_testing": -1.0,
    "test_medium_electrolyte": [
        {
            "substance_name": "oxygen",
            "substance_type": "small molecule",
            "substance_descriptors": {
                "CID": 977,
                "MolecularFormula": "O2",
                "MolecularWeight": "31.999",
                "CanonicalSMILES": "O=O",
                "IsomericSMILES": "O=O",
                "InChI": "InChI=1S/O2/c1-2",
                "InChIKey": "MYMOFIZGZYHOMD-UHFFFAOYSA-N",
                "IUPACName": "molecular oxygen",
                "XLogP": -1.1,
                "ExactMass": "31.989829239",
                "MonoisotopicMass": "31.989829239",
                "TPSA": 34.1,
                "Complexity": 0,
                "Charge": 0,
                "HBondDonorCount": 0,
                "HBondAcceptorCount": 2,
                "RotatableBondCount": 0,
                "HeavyAtomCount": 2,
                "IsotopeAtomCount": 0,
                "AtomStereoCount": 0,
                "DefinedAtomStereoCount": 0,
                "UndefinedAtomStereoCount": 0,
                "BondStereoCount": 0,
                "DefinedBondStereoCount": 0,
                "UndefinedBondStereoCount": 0,
                "CovalentUnitCount": 1,
                "Volume3D": 22.9,
                "XStericQuadrupole3D": 0.87,
                "YStericQuadrupole3D": 0.49,
                "ZStericQuadrupole3D": 0.49,
                "FeatureAcceptorCount3D": 0,
                "FeatureDonorCount3D": 0,
                "FeatureAnionCount3D": 0,
                "FeatureCationCount3D": 0,
                "FeatureRingCount3D": 0,
                "FeatureHydrophobeCount3D": 0,
                "ConformerModelRMSD3D": 0.4,
                "EffectiveRotorCount3D": 0,
                "ConformerCount3D": 1,
                "Morgan_128": [
                    0,
                    0,
                    0,
                    0,
                    0,
                    0,
                    0,
                    0,
                    0,
                    0,
                    1,
                    0,
                    0,
                    0,
                    0,
                    0,
                    1,
                    0,
                    0,
                    0,
                    0,
                    0,
                    0,
                    0,
                    0,
                    0,
                    0,
                    0,
                    0,
                    0,
                    0,
                    0,
                    0,
                    0,
                    0,
                    0,
                    0,
                    0,
                    0,
                    0,
                    0,
                    0,
                    0,
                    0,
                    0,
                    0,
                    0,
                    0,
                    0,
                    0,
                    0,
                    0,
                    0,
                    0,
                    0,
                    0,
                    0,
                    0,
                    0,
                    0,
                    0,
                    0,
                    0,
                    0,
                    0,
                    0,
                    0,
                    0,
                    0,
                    0,
                    0,
                    0,
                    0,
                    0,
                    0,
                    0,
                    0,
                    0,
                    0,
                    0,
                    0,
                    0,
                    0,
                    0,
                    0,
                    0,
                    0,
                    0,
                    0,
                    0,
                    0,
                    0,
                    0,
                    0,
                    0,
                    0,
                    0,
                    0,
                    0,
                    0,
                    0,
                    0,
                    0,
                    0,
                    0,
                    0,
                    0,
                    0,
                    0,
                    0,
                    0,
                    0,
                    0,
                    0,
                    0,
                    0,
                    0,
                    0,
                    0,
                    0,
                    0,
                    0,
                    0,
                    0,
                    0,
                    0,
                    0,
                    0
                ]
            }
        },
        {
            "substance_name": "nitrogen",
            "substance_type": "small molecule",
            "substance_descriptors": {
                "CID": 947,
                "MolecularFormula": "N2",
                "MolecularWeight": "28.014",
                "CanonicalSMILES": "N#N",
                "IsomericSMILES": "N#N",
                "InChI": "InChI=1S/N2/c1-2",
                "InChIKey": "IJGRMHOSHXDMSA-UHFFFAOYSA-N",
                "IUPACName": "molecular nitrogen",
                "XLogP": 0.1,
                "ExactMass": "28.006148008",
                "MonoisotopicMass": "28.006148008",
                "TPSA": 47.6,
                "Complexity": 8,
                "Charge": 0,
                "HBondDonorCount": 0,
                "HBondAcceptorCount": 2,
                "RotatableBondCount": 0,
                "HeavyAtomCount": 2,
                "IsotopeAtomCount": 0,
                "AtomStereoCount": 0,
                "DefinedAtomStereoCount": 0,
                "UndefinedAtomStereoCount": 0,
                "BondStereoCount": 0,
                "DefinedBondStereoCount": 0,
                "UndefinedBondStereoCount": 0,
                "CovalentUnitCount": 1,
                "Volume3D": 23.1,
                "XStericQuadrupole3D": 0.82,
                "YStericQuadrupole3D": 0.51,
                "ZStericQuadrupole3D": 0.51,
                "FeatureAcceptorCount3D": 0,
                "FeatureDonorCount3D": 0,
                "FeatureAnionCount3D": 0,
                "FeatureCationCount3D": 0,
                "FeatureRingCount3D": 0,
                "FeatureHydrophobeCount3D": 0,
                "ConformerModelRMSD3D": 0.4,
                "EffectiveRotorCount3D": 0,
                "ConformerCount3D": 1,
                "Morgan_128": [
                    0,
                    0,
                    0,
                    0,
                    0,
                    0,
                    0,
                    0,
                    0,
                    0,
                    0,
                    0,
                    0,
                    0,
                    0,
                    0,
                    0,
                    0,
                    0,
                    0,
                    0,
                    0,
                    0,
                    0,
                    0,
                    0,
                    0,
                    0,
                    0,
                    0,
                    0,
                    0,
                    0,
                    0,
                    0,
                    0,
                    0,
                    0,
                    0,
                    0,
                    0,
                    0,
                    0,
                    0,
                    0,
                    0,
                    0,
                    0,
                    0,
                    0,
                    0,
                    0,
                    0,
                    0,
                    0,
                    0,
                    0,
                    0,
                    0,
                    0,
                    0,
                    0,
                    0,
                    0,
                    0,
                    0,
                    0,
                    0,
                    0,
                    0,
                    0,
                    0,
                    0,
                    0,
                    0,
                    0,
                    1,
                    0,
                    0,
                    0,
                    0,
                    0,
                    0,
                    0,
                    0,
                    0,
                    0,
                    0,
                    0,
                    0,
                    0,
                    0,
                    0,
                    0,
                    0,
                    0,
                    0,
                    0,
                    0,
                    0,
                    0,
                    0,
                    0,
                    0,
                    1,
                    0,
                    0,
                    0,
                    0,
                    0,
                    0,
                    0,
                    0,
                    0,
                    0,
                    0,
                    0,
                    0,
                    0,
                    0,
                    0,
                    0,
                    0,
                    0,
                    0,
                    0,
                    0,
                    0
                ]
            }
        }
    ],
    "LDL_ranking": 1.0,
    "UDL_ranking": 1.0,
    "LDL_category": "Very High Detection (Low Sensitivity)",
    "UDL_category": "Moderate UDL Range"
}