{
    "DOI": "10.1002/smll.202310527",
    "sensor_type": "liquid",
    "detect_target": [
        {
            "substance_name": "carbon",
            "substance_type": "inorganic solid",
            "substance_descriptors": {
                "Number of Elements": 1,
                "Element Types": [
                    "C"
                ],
                "Number of Atoms in Unit Cell": 4,
                "Lattice Parameter a (\u00c5)": "2.464",
                "Lattice Parameter b (\u00c5)": "2.464",
                "Lattice Parameter c (\u00c5)": "6.711",
                "Lattice Angle alpha (degrees)": "90",
                "Lattice Angle beta (degrees)": "90",
                "Lattice Angle gamma (degrees)": "120",
                "Unit Cell Volume (\u00c5\u00b3)": 41.13742607024477,
                "Density (g/cm\u00b3)": 1.9392789945736095,
                "Space Group Number": 194,
                "Is Metallic (1/0)": 1,
                "Band Gap (eV)": 0.0,
                "Formation Energy per Atom (eV)": 0.008368335000000116,
                "Energy Above Hull (eV/atom)": 0.008368335000000116,
                "Energy per Atom (eV/atom)": -9.2202971575,
                "Total Magnetization (\u03bcB)": 0.0,
                "Magnetic Ordering": "NM",
                "Bulk Modulus (GPa)": 115.976,
                "Shear Modulus (GPa)": 89.734,
                "Fermi Energy (eV)": 3.9958426,
                "Total Energy (eV)": -4.74443,
                "Crystal System": "hexagonal",
                "Magpie Descriptors": {
                    "MagpieData minimum Number": 6.0,
                    "MagpieData maximum Number": 6.0,
                    "MagpieData range Number": 0.0,
                    "MagpieData mean Number": 6.0,
                    "MagpieData avg_dev Number": 0.0,
                    "MagpieData mode Number": 6.0,
                    "MagpieData std_dev Number": 0,
                    "MagpieData minimum MendeleevNumber": 77.0,
                    "MagpieData maximum MendeleevNumber": 77.0,
                    "MagpieData range MendeleevNumber": 0.0,
                    "MagpieData mean MendeleevNumber": 77.0,
                    "MagpieData avg_dev MendeleevNumber": 0.0,
                    "MagpieData mode MendeleevNumber": 77.0,
                    "MagpieData std_dev MendeleevNumber": 0,
                    "MagpieData minimum AtomicWeight": 12.0107,
                    "MagpieData maximum AtomicWeight": 12.0107,
                    "MagpieData range AtomicWeight": 0.0,
                    "MagpieData mean AtomicWeight": 12.0107,
                    "MagpieData avg_dev AtomicWeight": 0.0,
                    "MagpieData mode AtomicWeight": 12.0107,
                    "MagpieData std_dev AtomicWeight": 0,
                    "MagpieData minimum MeltingT": 3823.0,
                    "MagpieData maximum MeltingT": 3823.0,
                    "MagpieData range MeltingT": 0.0,
                    "MagpieData mean MeltingT": 3823.0,
                    "MagpieData avg_dev MeltingT": 0.0,
                    "MagpieData mode MeltingT": 3823.0,
                    "MagpieData std_dev MeltingT": 0,
                    "MagpieData minimum Column": 14.0,
                    "MagpieData maximum Column": 14.0,
                    "MagpieData range Column": 0.0,
                    "MagpieData mean Column": 14.0,
                    "MagpieData avg_dev Column": 0.0,
                    "MagpieData mode Column": 14.0,
                    "MagpieData std_dev Column": 0,
                    "MagpieData minimum Row": 2.0,
                    "MagpieData maximum Row": 2.0,
                    "MagpieData range Row": 0.0,
                    "MagpieData mean Row": 2.0,
                    "MagpieData avg_dev Row": 0.0,
                    "MagpieData mode Row": 2.0,
                    "MagpieData std_dev Row": 0,
                    "MagpieData minimum CovalentRadius": 76.0,
                    "MagpieData maximum CovalentRadius": 76.0,
                    "MagpieData range CovalentRadius": 0.0,
                    "MagpieData mean CovalentRadius": 76.0,
                    "MagpieData avg_dev CovalentRadius": 0.0,
                    "MagpieData mode CovalentRadius": 76.0,
                    "MagpieData std_dev CovalentRadius": 0,
                    "MagpieData minimum Electronegativity": 2.55,
                    "MagpieData maximum Electronegativity": 2.55,
                    "MagpieData range Electronegativity": 0.0,
                    "MagpieData mean Electronegativity": 2.55,
                    "MagpieData avg_dev Electronegativity": 0.0,
                    "MagpieData mode Electronegativity": 2.55,
                    "MagpieData std_dev Electronegativity": 0,
                    "MagpieData minimum NsValence": 2.0,
                    "MagpieData maximum NsValence": 2.0,
                    "MagpieData range NsValence": 0.0,
                    "MagpieData mean NsValence": 2.0,
                    "MagpieData avg_dev NsValence": 0.0,
                    "MagpieData mode NsValence": 2.0,
                    "MagpieData std_dev NsValence": 0,
                    "MagpieData minimum NpValence": 2.0,
                    "MagpieData maximum NpValence": 2.0,
                    "MagpieData range NpValence": 0.0,
                    "MagpieData mean NpValence": 2.0,
                    "MagpieData avg_dev NpValence": 0.0,
                    "MagpieData mode NpValence": 2.0,
                    "MagpieData std_dev NpValence": 0,
                    "MagpieData minimum NdValence": 0.0,
                    "MagpieData maximum NdValence": 0.0,
                    "MagpieData range NdValence": 0.0,
                    "MagpieData mean NdValence": 0.0,
                    "MagpieData avg_dev NdValence": 0.0,
                    "MagpieData mode NdValence": 0.0,
                    "MagpieData std_dev NdValence": 0,
                    "MagpieData minimum NfValence": 0.0,
                    "MagpieData maximum NfValence": 0.0,
                    "MagpieData range NfValence": 0.0,
                    "MagpieData mean NfValence": 0.0,
                    "MagpieData avg_dev NfValence": 0.0,
                    "MagpieData mode NfValence": 0.0,
                    "MagpieData std_dev NfValence": 0,
                    "MagpieData minimum NValence": 4.0,
                    "MagpieData maximum NValence": 4.0,
                    "MagpieData range NValence": 0.0,
                    "MagpieData mean NValence": 4.0,
                    "MagpieData avg_dev NValence": 0.0,
                    "MagpieData mode NValence": 4.0,
                    "MagpieData std_dev NValence": 0,
                    "MagpieData minimum NsUnfilled": 0.0,
                    "MagpieData maximum NsUnfilled": 0.0,
                    "MagpieData range NsUnfilled": 0.0,
                    "MagpieData mean NsUnfilled": 0.0,
                    "MagpieData avg_dev NsUnfilled": 0.0,
                    "MagpieData mode NsUnfilled": 0.0,
                    "MagpieData std_dev NsUnfilled": 0,
                    "MagpieData minimum NpUnfilled": 4.0,
                    "MagpieData maximum NpUnfilled": 4.0,
                    "MagpieData range NpUnfilled": 0.0,
                    "MagpieData mean NpUnfilled": 4.0,
                    "MagpieData avg_dev NpUnfilled": 0.0,
                    "MagpieData mode NpUnfilled": 4.0,
                    "MagpieData std_dev NpUnfilled": 0,
                    "MagpieData minimum NdUnfilled": 0.0,
                    "MagpieData maximum NdUnfilled": 0.0,
                    "MagpieData range NdUnfilled": 0.0,
                    "MagpieData mean NdUnfilled": 0.0,
                    "MagpieData avg_dev NdUnfilled": 0.0,
                    "MagpieData mode NdUnfilled": 0.0,
                    "MagpieData std_dev NdUnfilled": 0,
                    "MagpieData minimum NfUnfilled": 0.0,
                    "MagpieData maximum NfUnfilled": 0.0,
                    "MagpieData range NfUnfilled": 0.0,
                    "MagpieData mean NfUnfilled": 0.0,
                    "MagpieData avg_dev NfUnfilled": 0.0,
                    "MagpieData mode NfUnfilled": 0.0,
                    "MagpieData std_dev NfUnfilled": 0,
                    "MagpieData minimum NUnfilled": 4.0,
                    "MagpieData maximum NUnfilled": 4.0,
                    "MagpieData range NUnfilled": 0.0,
                    "MagpieData mean NUnfilled": 4.0,
                    "MagpieData avg_dev NUnfilled": 0.0,
                    "MagpieData mode NUnfilled": 4.0,
                    "MagpieData std_dev NUnfilled": 0,
                    "MagpieData minimum GSvolume_pa": 5.64,
                    "MagpieData maximum GSvolume_pa": 5.64,
                    "MagpieData range GSvolume_pa": 0.0,
                    "MagpieData mean GSvolume_pa": 5.64,
                    "MagpieData avg_dev GSvolume_pa": 0.0,
                    "MagpieData mode GSvolume_pa": 5.64,
                    "MagpieData std_dev GSvolume_pa": 0,
                    "MagpieData minimum GSbandgap": 4.496,
                    "MagpieData maximum GSbandgap": 4.496,
                    "MagpieData range GSbandgap": 0.0,
                    "MagpieData mean GSbandgap": 4.496,
                    "MagpieData avg_dev GSbandgap": 0.0,
                    "MagpieData mode GSbandgap": 4.496,
                    "MagpieData std_dev GSbandgap": 0,
                    "MagpieData minimum GSmagmom": 0.0,
                    "MagpieData maximum GSmagmom": 0.0,
                    "MagpieData range GSmagmom": 0.0,
                    "MagpieData mean GSmagmom": 0.0,
                    "MagpieData avg_dev GSmagmom": 0.0,
                    "MagpieData mode GSmagmom": 0.0,
                    "MagpieData std_dev GSmagmom": 0,
                    "MagpieData minimum SpaceGroupNumber": 194.0,
                    "MagpieData maximum SpaceGroupNumber": 194.0,
                    "MagpieData range SpaceGroupNumber": 0.0,
                    "MagpieData mean SpaceGroupNumber": 194.0,
                    "MagpieData avg_dev SpaceGroupNumber": 0.0,
                    "MagpieData mode SpaceGroupNumber": 194.0,
                    "MagpieData std_dev SpaceGroupNumber": 0
                }
            }
        },
        {
            "substance_name": "hydrogen sulfite",
            "substance_type": "small molecule",
            "substance_descriptors": {
                "CID": 104748,
                "MolecularFormula": "HO3S-",
                "MolecularWeight": "81.07",
                "CanonicalSMILES": "OS(=O)[O-]",
                "IsomericSMILES": "OS(=O)[O-]",
                "InChI": "InChI=1S/H2O3S/c1-4(2)3/h(H2,1,2,3)/p-1",
                "InChIKey": "LSNNMFCWUKXFEE-UHFFFAOYSA-M",
                "IUPACName": "hydrogen sulfite",
                "XLogP": -1,
                "ExactMass": "80.96464006",
                "MonoisotopicMass": "80.96464006",
                "TPSA": 79.6,
                "Complexity": 24,
                "Charge": -1,
                "HBondDonorCount": 1,
                "HBondAcceptorCount": 4,
                "RotatableBondCount": 0,
                "HeavyAtomCount": 4,
                "IsotopeAtomCount": 0,
                "AtomStereoCount": 0,
                "DefinedAtomStereoCount": 0,
                "UndefinedAtomStereoCount": 0,
                "BondStereoCount": 0,
                "DefinedBondStereoCount": 0,
                "UndefinedBondStereoCount": 0,
                "CovalentUnitCount": 1,
                "Volume3D": 48.4,
                "XStericQuadrupole3D": 1.25,
                "YStericQuadrupole3D": 1.23,
                "ZStericQuadrupole3D": 0.6,
                "FeatureAcceptorCount3D": 3,
                "FeatureDonorCount3D": 0,
                "FeatureAnionCount3D": 0,
                "FeatureCationCount3D": 0,
                "FeatureRingCount3D": 0,
                "FeatureHydrophobeCount3D": 0,
                "ConformerModelRMSD3D": 0.4,
                "EffectiveRotorCount3D": 0,
                "ConformerCount3D": 1,
                "Morgan_128": [
                    0,
                    0,
                    0,
                    0,
                    0,
                    0,
                    0,
                    0,
                    0,
                    0,
                    1,
                    0,
                    0,
                    0,
                    0,
                    0,
                    0,
                    0,
                    0,
                    0,
                    0,
                    0,
                    0,
                    0,
                    0,
                    0,
                    0,
                    0,
                    0,
                    0,
                    0,
                    0,
                    0,
                    0,
                    0,
                    0,
                    0,
                    0,
                    0,
                    1,
                    0,
                    0,
                    0,
                    1,
                    0,
                    0,
                    0,
                    0,
                    0,
                    0,
                    0,
                    0,
                    0,
                    0,
                    0,
                    0,
                    0,
                    1,
                    0,
                    0,
                    0,
                    0,
                    0,
                    0,
                    0,
                    0,
                    0,
                    0,
                    0,
                    0,
                    1,
                    0,
                    0,
                    0,
                    1,
                    1,
                    0,
                    0,
                    0,
                    0,
                    0,
                    0,
                    0,
                    0,
                    0,
                    0,
                    0,
                    0,
                    0,
                    0,
                    0,
                    0,
                    0,
                    0,
                    0,
                    0,
                    0,
                    0,
                    0,
                    0,
                    0,
                    0,
                    0,
                    0,
                    0,
                    0,
                    0,
                    0,
                    0,
                    0,
                    0,
                    0,
                    0,
                    1,
                    0,
                    0,
                    0,
                    0,
                    0,
                    0,
                    0,
                    0,
                    0,
                    0,
                    0,
                    0,
                    0,
                    0
                ]
            }
        }
    ],
    "lower_detection_limit_log_ppm": 2.397940009,
    "upper_detection_limit_log_ppm": 3.698970004,
    "probe_material": [
        {
            "substance_name": "poly(3-hexylthiophene-2,5-diyl)",
            "substance_type": "polymer",
            "substance_descriptors": {
                "mol_weight": 779.3880000000004,
                "exact_mol_weight": 778.4673363680001,
                "num_h_donors": 0,
                "num_h_acceptors": 4,
                "logP": 16.80459999999997,
                "tpsa": 0.0,
                "num_rotatable_bonds": 29,
                "fraction_csp3": 0.6666666666666666,
                "labute_asa": 336.84228648002653,
                "peoe_vsa": [
                    0.0,
                    0.0,
                    0.0,
                    0.0,
                    45.34714351173894,
                    83.97359667480276,
                    171.02946296005175,
                    39.01717754961039,
                    0.0,
                    0.0,
                    0.0,
                    0.0,
                    0.0,
                    0.0
                ],
                "peoe_vsa_summary": {
                    "vsa_sum": 339.36738069620384,
                    "vsa_mean": 24.24052719258599,
                    "vsa_std": 47.55065080482616
                },
                "smr_vsa": [
                    0.0,
                    0.0,
                    0.0,
                    0.0,
                    208.48378539422012,
                    0.0,
                    85.53645179024484,
                    0.0,
                    0.0,
                    45.34714351173894
                ],
                "smr_vsa_summary": {
                    "vsa_sum": 339.3673806962039,
                    "vsa_mean": 33.93673806962039,
                    "vsa_std": 64.28165747223863
                },
                "slogp_vsa": [
                    0.0,
                    0.0,
                    44.94575136048208,
                    34.61868599845312,
                    190.1903315516832,
                    24.26546827384644,
                    0.0,
                    0.0,
                    0.0,
                    0.0,
                    0.0,
                    45.34714351173894
                ],
                "slogp_vsa_summary": {
                    "vsa_sum": 339.3673806962038,
                    "vsa_mean": 28.280615058016977,
                    "vsa_std": 51.99246285108977
                },
                "kappa1": 43.52691090504553,
                "kappa2": 25.054867495943753,
                "kappa3": 16.263534738266937,
                "chi0": 34.327170549464185,
                "chi1": 21.6243747539534,
                "chi0n": 34.327170549464185,
                "chi1n": 21.6243747539534,
                "chi2n": 15.934847031233684,
                "chi0v": 37.59315687317508,
                "chi1v": 24.890361077664306,
                "chi2v": 21.41791609077494,
                "num_rings": 4,
                "num_aromatic_rings": 4,
                "num_aliphatic_rings": 0,
                "num_saturated_rings": 0,
                "num_heteroatoms": 4,
                "num_spiro_atoms": 0,
                "num_bridgehead_atoms": 0,
                "phi": 0.048172751078940604,
                "morgan_fp_128": [
                    0,
                    0,
                    0,
                    0,
                    0,
                    1,
                    0,
                    0,
                    0,
                    0,
                    0,
                    0,
                    0,
                    0,
                    0,
                    0,
                    1,
                    0,
                    0,
                    0,
                    0,
                    0,
                    0,
                    0,
                    0,
                    0,
                    1,
                    0,
                    0,
                    0,
                    0,
                    0,
                    1,
                    1,
                    1,
                    1,
                    1,
                    0,
                    1,
                    0,
                    0,
                    0,
                    0,
                    1,
                    0,
                    0,
                    0,
                    0,
                    1,
                    0,
                    0,
                    0,
                    0,
                    0,
                    0,
                    0,
                    0,
                    1,
                    1,
                    0,
                    0,
                    0,
                    0,
                    0,
                    0,
                    0,
                    0,
                    0,
                    0,
                    1,
                    0,
                    1,
                    0,
                    0,
                    0,
                    0,
                    0,
                    0,
                    0,
                    1,
                    1,
                    1,
                    0,
                    0,
                    1,
                    0,
                    0,
                    0,
                    0,
                    0,
                    0,
                    1,
                    0,
                    0,
                    0,
                    0,
                    0,
                    0,
                    0,
                    0,
                    1,
                    0,
                    0,
                    1,
                    0,
                    0,
                    0,
                    1,
                    0,
                    0,
                    0,
                    0,
                    0,
                    1,
                    0,
                    0,
                    0,
                    0,
                    0,
                    1,
                    0,
                    0,
                    0,
                    0,
                    0,
                    1,
                    0,
                    0
                ],
                "maccs_fp": [
                    0,
                    0,
                    0,
                    0,
                    0,
                    0,
                    0,
                    0,
                    0,
                    0,
                    0,
                    0,
                    0,
                    0,
                    0,
                    0,
                    0,
                    0,
                    0,
                    0,
                    0,
                    0,
                    0,
                    0,
                    0,
                    0,
                    0,
                    0,
                    0,
                    0,
                    0,
                    0,
                    0,
                    0,
                    0,
                    0,
                    1,
                    0,
                    0,
                    0,
                    0,
                    0,
                    0,
                    0,
                    0,
                    0,
                    0,
                    0,
                    0,
                    0,
                    0,
                    0,
                    0,
                    0,
                    0,
                    0,
                    0,
                    0,
                    0,
                    0,
                    0,
                    0,
                    0,
                    0,
                    0,
                    0,
                    0,
                    0,
                    0,
                    0,
                    0,
                    0,
                    0,
                    0,
                    0,
                    0,
                    0,
                    0,
                    0,
                    0,
                    0,
                    1,
                    0,
                    1,
                    0,
                    0,
                    0,
                    0,
                    1,
                    0,
                    0,
                    0,
                    0,
                    0,
                    0,
                    0,
                    1,
                    0,
                    0,
                    0,
                    0,
                    0,
                    0,
                    0,
                    0,
                    0,
                    0,
                    0,
                    1,
                    0,
                    0,
                    0,
                    0,
                    0,
                    1,
                    1,
                    1,
                    0,
                    1,
                    0,
                    1,
                    0,
                    0,
                    0,
                    0,
                    1,
                    0,
                    0,
                    1,
                    1,
                    0,
                    0,
                    0,
                    0,
                    0,
                    0,
                    0,
                    1,
                    0,
                    0,
                    0,
                    1,
                    0,
                    0,
                    1,
                    0,
                    0,
                    1,
                    0,
                    1,
                    1,
                    0,
                    0,
                    0,
                    0,
                    1,
                    0,
                    0,
                    0,
                    0,
                    1,
                    0,
                    1,
                    0,
                    0,
                    1,
                    0
                ]
            }
        }
    ],
    "test_operating_temperature_celsius": 23.75,
    "min_pH_when_testing": 7.5,
    "max_pH_when_testing": 7.5,
    "test_medium_electrolyte": [
        {
            "substance_name": "ethanol",
            "substance_type": "small molecule",
            "substance_descriptors": {
                "CID": 702,
                "MolecularFormula": "C2H6O",
                "MolecularWeight": "46.07",
                "CanonicalSMILES": "CCO",
                "IsomericSMILES": "CCO",
                "InChI": "InChI=1S/C2H6O/c1-2-3/h3H,2H2,1H3",
                "InChIKey": "LFQSCWFLJHTTHZ-UHFFFAOYSA-N",
                "IUPACName": "ethanol",
                "XLogP": -0.1,
                "ExactMass": "46.041864811",
                "MonoisotopicMass": "46.041864811",
                "TPSA": 20.2,
                "Complexity": 2,
                "Charge": 0,
                "HBondDonorCount": 1,
                "HBondAcceptorCount": 1,
                "RotatableBondCount": 0,
                "HeavyAtomCount": 3,
                "IsotopeAtomCount": 0,
                "AtomStereoCount": 0,
                "DefinedAtomStereoCount": 0,
                "UndefinedAtomStereoCount": 0,
                "BondStereoCount": 0,
                "DefinedBondStereoCount": 0,
                "UndefinedBondStereoCount": 0,
                "CovalentUnitCount": 1,
                "Volume3D": 41.5,
                "XStericQuadrupole3D": 1.48,
                "YStericQuadrupole3D": 0.75,
                "ZStericQuadrupole3D": 0.58,
                "FeatureAcceptorCount3D": 1,
                "FeatureDonorCount3D": 1,
                "FeatureAnionCount3D": 0,
                "FeatureCationCount3D": 0,
                "FeatureRingCount3D": 0,
                "FeatureHydrophobeCount3D": 0,
                "ConformerModelRMSD3D": 0.4,
                "EffectiveRotorCount3D": 0,
                "ConformerCount3D": 1,
                "Morgan_128": [
                    0,
                    0,
                    1,
                    0,
                    0,
                    0,
                    0,
                    0,
                    0,
                    0,
                    0,
                    0,
                    0,
                    0,
                    0,
                    0,
                    0,
                    0,
                    0,
                    0,
                    0,
                    0,
                    0,
                    0,
                    0,
                    0,
                    0,
                    0,
                    0,
                    0,
                    0,
                    0,
                    0,
                    1,
                    0,
                    0,
                    0,
                    0,
                    1,
                    1,
                    0,
                    0,
                    0,
                    0,
                    0,
                    0,
                    0,
                    0,
                    0,
                    0,
                    0,
                    0,
                    0,
                    0,
                    0,
                    0,
                    0,
                    0,
                    0,
                    0,
                    0,
                    0,
                    0,
                    0,
                    0,
                    0,
                    0,
                    0,
                    0,
                    0,
                    0,
                    0,
                    0,
                    0,
                    0,
                    0,
                    0,
                    0,
                    0,
                    0,
                    1,
                    0,
                    0,
                    0,
                    0,
                    0,
                    0,
                    0,
                    0,
                    0,
                    0,
                    0,
                    0,
                    0,
                    1,
                    0,
                    0,
                    0,
                    0,
                    0,
                    0,
                    0,
                    0,
                    0,
                    0,
                    0,
                    0,
                    0,
                    0,
                    0,
                    0,
                    0,
                    0,
                    0,
                    0,
                    0,
                    0,
                    0,
                    0,
                    0,
                    0,
                    0,
                    0,
                    0,
                    0,
                    0,
                    0,
                    0
                ]
            }
        }
    ],
    "LDL_ranking": 1.0,
    "UDL_ranking": 1.0,
    "LDL_category": "Very High Detection (Low Sensitivity)",
    "UDL_category": "High UDL Range"
}