{
    "DOI": "10.1021/acs.nanolett.0c02221",
    "sensor_type": "gas",
    "detect_target": [
        {
            "substance_name": "nitrogen dioxide",
            "substance_type": "small molecule",
            "substance_descriptors": {
                "CID": 3032552,
                "MolecularFormula": "NO2",
                "MolecularWeight": "46.006",
                "CanonicalSMILES": "N(=O)[O]",
                "IsomericSMILES": "N(=O)[O]",
                "InChI": "InChI=1S/NO2/c2-1-3",
                "InChIKey": "JCXJVPUVTGWSNB-UHFFFAOYSA-N",
                "XLogP": -0.3,
                "ExactMass": "45.992903243",
                "MonoisotopicMass": "45.992903243",
                "TPSA": 30.4,
                "Complexity": 7,
                "Charge": 0,
                "HBondDonorCount": 0,
                "HBondAcceptorCount": 2,
                "RotatableBondCount": 0,
                "HeavyAtomCount": 3,
                "IsotopeAtomCount": 0,
                "AtomStereoCount": 0,
                "DefinedAtomStereoCount": 0,
                "UndefinedAtomStereoCount": 0,
                "BondStereoCount": 0,
                "DefinedBondStereoCount": 0,
                "UndefinedBondStereoCount": 0,
                "CovalentUnitCount": 1,
                "ConformerCount3D": 0,
                "Morgan_128": [
                    0,
                    0,
                    0,
                    0,
                    0,
                    0,
                    0,
                    0,
                    0,
                    0,
                    1,
                    0,
                    1,
                    0,
                    0,
                    0,
                    0,
                    0,
                    0,
                    0,
                    0,
                    0,
                    0,
                    0,
                    0,
                    0,
                    0,
                    0,
                    0,
                    0,
                    0,
                    0,
                    0,
                    0,
                    0,
                    0,
                    0,
                    0,
                    0,
                    0,
                    0,
                    0,
                    0,
                    0,
                    0,
                    0,
                    0,
                    0,
                    0,
                    0,
                    0,
                    0,
                    1,
                    0,
                    0,
                    0,
                    0,
                    0,
                    0,
                    0,
                    0,
                    0,
                    0,
                    0,
                    0,
                    0,
                    0,
                    0,
                    0,
                    0,
                    0,
                    0,
                    0,
                    0,
                    0,
                    0,
                    0,
                    0,
                    0,
                    0,
                    0,
                    0,
                    0,
                    1,
                    0,
                    1,
                    0,
                    0,
                    0,
                    0,
                    0,
                    0,
                    0,
                    0,
                    0,
                    0,
                    0,
                    0,
                    0,
                    0,
                    0,
                    0,
                    0,
                    0,
                    0,
                    0,
                    0,
                    0,
                    0,
                    0,
                    0,
                    0,
                    0,
                    0,
                    0,
                    0,
                    0,
                    0,
                    0,
                    0,
                    0,
                    0,
                    0,
                    0,
                    0,
                    0,
                    0,
                    0
                ]
            }
        }
    ],
    "lower_detection_limit_log_ppm": -1.301029996,
    "upper_detection_limit_log_ppm": 1.176091259,
    "probe_material": [
        {
            "substance_name": "rhenium sulfide",
            "substance_type": "inorganic solid",
            "substance_descriptors": {
                "Number of Elements": 2,
                "Element Types": [
                    "S",
                    "Re"
                ],
                "Number of Atoms in Unit Cell": 24,
                "Lattice Parameter a (\u00c5)": 6.4204584463272605,
                "Lattice Parameter b (\u00c5)": 6.520488826253242,
                "Lattice Parameter c (\u00c5)": 28.044663,
                "Lattice Angle alpha (degrees)": 91.78025025001183,
                "Lattice Angle beta (degrees)": 103.9712287715497,
                "Lattice Angle gamma (degrees)": 118.88611974261251,
                "Unit Cell Volume (\u00c5\u00b3)": 467.5299135649283,
                "Density (g/cm\u00b3)": 7.113031380529443,
                "Space Group Number": 2,
                "Band Gap (eV)": 1.3202000000000003,
                "Is Metallic (1/0)": 0,
                "Formation Energy per Atom (eV)": -0.9015415041666669,
                "Energy Above Hull (eV/atom)": 0.0,
                "Energy per Atom (eV/atom)": -7.809819285,
                "Total Magnetization (\u03bcB)": 0.0,
                "Magnetic Ordering": "NM",
                "Bulk Modulus (GPa)": 11.027,
                "Shear Modulus (GPa)": 18.793,
                "Fermi Energy (eV)": 4.02373717,
                "Total Energy (eV)": -5.30733,
                "Crystal System": "triclinic",
                "Magpie Descriptors": {
                    "MagpieData minimum Number": 16.0,
                    "MagpieData maximum Number": 75.0,
                    "MagpieData range Number": 59.0,
                    "MagpieData mean Number": 55.333333333333336,
                    "MagpieData avg_dev Number": 26.22222222222222,
                    "MagpieData mode Number": 75.0,
                    "MagpieData std_dev Number": 41.7193000900063,
                    "MagpieData minimum MendeleevNumber": 54.0,
                    "MagpieData maximum MendeleevNumber": 88.0,
                    "MagpieData range MendeleevNumber": 34.0,
                    "MagpieData mean MendeleevNumber": 65.33333333333333,
                    "MagpieData avg_dev MendeleevNumber": 15.111111111111109,
                    "MagpieData mode MendeleevNumber": 54.0,
                    "MagpieData std_dev MendeleevNumber": 24.041630560342615,
                    "MagpieData minimum AtomicWeight": 32.065,
                    "MagpieData maximum AtomicWeight": 186.207,
                    "MagpieData range AtomicWeight": 154.142,
                    "MagpieData mean AtomicWeight": 134.8263333333333,
                    "MagpieData avg_dev AtomicWeight": 68.50755555555556,
                    "MagpieData mode AtomicWeight": 186.207,
                    "MagpieData std_dev AtomicWeight": 108.9948534656568,
                    "MagpieData minimum MeltingT": 388.36,
                    "MagpieData maximum MeltingT": 3459.0,
                    "MagpieData range MeltingT": 3070.64,
                    "MagpieData mean MeltingT": 2435.4533333333334,
                    "MagpieData avg_dev MeltingT": 1364.7288888888888,
                    "MagpieData mode MeltingT": 3459.0,
                    "MagpieData std_dev MeltingT": 2171.2703665826602,
                    "MagpieData minimum Column": 7.0,
                    "MagpieData maximum Column": 16.0,
                    "MagpieData range Column": 9.0,
                    "MagpieData mean Column": 10.0,
                    "MagpieData avg_dev Column": 4.0,
                    "MagpieData mode Column": 7.0,
                    "MagpieData std_dev Column": 6.363961030678928,
                    "MagpieData minimum Row": 3.0,
                    "MagpieData maximum Row": 6.0,
                    "MagpieData range Row": 3.0,
                    "MagpieData mean Row": 5.0,
                    "MagpieData avg_dev Row": 1.3333333333333333,
                    "MagpieData mode Row": 6.0,
                    "MagpieData std_dev Row": 2.1213203435596424,
                    "MagpieData minimum CovalentRadius": 105.0,
                    "MagpieData maximum CovalentRadius": 151.0,
                    "MagpieData range CovalentRadius": 46.0,
                    "MagpieData mean CovalentRadius": 135.66666666666666,
                    "MagpieData avg_dev CovalentRadius": 20.444444444444446,
                    "MagpieData mode CovalentRadius": 151.0,
                    "MagpieData std_dev CovalentRadius": 32.526911934581186,
                    "MagpieData minimum Electronegativity": 1.9,
                    "MagpieData maximum Electronegativity": 2.58,
                    "MagpieData range Electronegativity": 0.6800000000000002,
                    "MagpieData mean Electronegativity": 2.1266666666666665,
                    "MagpieData avg_dev Electronegativity": 0.3022222222222222,
                    "MagpieData mode Electronegativity": 1.9,
                    "MagpieData std_dev Electronegativity": 0.48083261120685244,
                    "MagpieData minimum NsValence": 2.0,
                    "MagpieData maximum NsValence": 2.0,
                    "MagpieData range NsValence": 0.0,
                    "MagpieData mean NsValence": 2.0,
                    "MagpieData avg_dev NsValence": 0.0,
                    "MagpieData mode NsValence": 2.0,
                    "MagpieData std_dev NsValence": 0.0,
                    "MagpieData minimum NpValence": 0.0,
                    "MagpieData maximum NpValence": 4.0,
                    "MagpieData range NpValence": 4.0,
                    "MagpieData mean NpValence": 1.3333333333333333,
                    "MagpieData avg_dev NpValence": 1.7777777777777777,
                    "MagpieData mode NpValence": 0.0,
                    "MagpieData std_dev NpValence": 2.8284271247461903,
                    "MagpieData minimum NdValence": 0.0,
                    "MagpieData maximum NdValence": 5.0,
                    "MagpieData range NdValence": 5.0,
                    "MagpieData mean NdValence": 3.333333333333333,
                    "MagpieData avg_dev NdValence": 2.2222222222222223,
                    "MagpieData mode NdValence": 5.0,
                    "MagpieData std_dev NdValence": 3.5355339059327378,
                    "MagpieData minimum NfValence": 0.0,
                    "MagpieData maximum NfValence": 14.0,
                    "MagpieData range NfValence": 14.0,
                    "MagpieData mean NfValence": 9.333333333333332,
                    "MagpieData avg_dev NfValence": 6.222222222222222,
                    "MagpieData mode NfValence": 14.0,
                    "MagpieData std_dev NfValence": 9.899494936611665,
                    "MagpieData minimum NValence": 6.0,
                    "MagpieData maximum NValence": 21.0,
                    "MagpieData range NValence": 15.0,
                    "MagpieData mean NValence": 16.0,
                    "MagpieData avg_dev NValence": 6.666666666666666,
                    "MagpieData mode NValence": 21.0,
                    "MagpieData std_dev NValence": 10.606601717798211,
                    "MagpieData minimum NsUnfilled": 0.0,
                    "MagpieData maximum NsUnfilled": 0.0,
                    "MagpieData range NsUnfilled": 0.0,
                    "MagpieData mean NsUnfilled": 0.0,
                    "MagpieData avg_dev NsUnfilled": 0.0,
                    "MagpieData mode NsUnfilled": 0.0,
                    "MagpieData std_dev NsUnfilled": 0.0,
                    "MagpieData minimum NpUnfilled": 0.0,
                    "MagpieData maximum NpUnfilled": 2.0,
                    "MagpieData range NpUnfilled": 2.0,
                    "MagpieData mean NpUnfilled": 0.6666666666666666,
                    "MagpieData avg_dev NpUnfilled": 0.8888888888888888,
                    "MagpieData mode NpUnfilled": 0.0,
                    "MagpieData std_dev NpUnfilled": 1.4142135623730951,
                    "MagpieData minimum NdUnfilled": 0.0,
                    "MagpieData maximum NdUnfilled": 5.0,
                    "MagpieData range NdUnfilled": 5.0,
                    "MagpieData mean NdUnfilled": 3.333333333333333,
                    "MagpieData avg_dev NdUnfilled": 2.2222222222222223,
                    "MagpieData mode NdUnfilled": 5.0,
                    "MagpieData std_dev NdUnfilled": 3.5355339059327378,
                    "MagpieData minimum NfUnfilled": 0.0,
                    "MagpieData maximum NfUnfilled": 0.0,
                    "MagpieData range NfUnfilled": 0.0,
                    "MagpieData mean NfUnfilled": 0.0,
                    "MagpieData avg_dev NfUnfilled": 0.0,
                    "MagpieData mode NfUnfilled": 0.0,
                    "MagpieData std_dev NfUnfilled": 0.0,
                    "MagpieData minimum NUnfilled": 2.0,
                    "MagpieData maximum NUnfilled": 5.0,
                    "MagpieData range NUnfilled": 3.0,
                    "MagpieData mean NUnfilled": 3.9999999999999996,
                    "MagpieData avg_dev NUnfilled": 1.3333333333333335,
                    "MagpieData mode NUnfilled": 5.0,
                    "MagpieData std_dev NUnfilled": 2.1213203435596424,
                    "MagpieData minimum GSvolume_pa": 14.655,
                    "MagpieData maximum GSvolume_pa": 25.786875,
                    "MagpieData range GSvolume_pa": 11.131874999999999,
                    "MagpieData mean GSvolume_pa": 18.365624999999998,
                    "MagpieData avg_dev GSvolume_pa": 4.947499999999999,
                    "MagpieData mode GSvolume_pa": 14.655,
                    "MagpieData std_dev GSvolume_pa": 7.8714242998209984,
                    "MagpieData minimum GSbandgap": 0.0,
                    "MagpieData maximum GSbandgap": 2.202,
                    "MagpieData range GSbandgap": 2.202,
                    "MagpieData mean GSbandgap": 0.734,
                    "MagpieData avg_dev GSbandgap": 0.9786666666666666,
                    "MagpieData mode GSbandgap": 0.0,
                    "MagpieData std_dev GSbandgap": 1.5570491321727777,
                    "MagpieData minimum GSmagmom": 0.0,
                    "MagpieData maximum GSmagmom": 0.0,
                    "MagpieData range GSmagmom": 0.0,
                    "MagpieData mean GSmagmom": 0.0,
                    "MagpieData avg_dev GSmagmom": 0.0,
                    "MagpieData mode GSmagmom": 0.0,
                    "MagpieData std_dev GSmagmom": 0.0,
                    "MagpieData minimum SpaceGroupNumber": 70.0,
                    "MagpieData maximum SpaceGroupNumber": 194.0,
                    "MagpieData range SpaceGroupNumber": 124.0,
                    "MagpieData mean SpaceGroupNumber": 152.66666666666666,
                    "MagpieData avg_dev SpaceGroupNumber": 55.111111111111114,
                    "MagpieData mode SpaceGroupNumber": 194.0,
                    "MagpieData std_dev SpaceGroupNumber": 87.68124086713189
                }
            }
        },
        {
            "substance_name": "niobium sulfide",
            "substance_type": "inorganic solid",
            "substance_descriptors": {
                "Number of Elements": 2,
                "Element Types": [
                    "S",
                    "Nb"
                ],
                "Number of Atoms in Unit Cell": 4,
                "Lattice Parameter a (\u00c5)": "3.32",
                "Lattice Parameter b (\u00c5)": "3.32",
                "Lattice Parameter c (\u00c5)": "6.46",
                "Lattice Angle alpha (degrees)": "90",
                "Lattice Angle beta (degrees)": "90",
                "Lattice Angle gamma (degrees)": "120",
                "Unit Cell Volume (\u00c5\u00b3)": 63.22609184748805,
                "Density (g/cm\u00b3)": 6.564374062451515,
                "Space Group Number": 194,
                "Is Metallic (1/0)": 1,
                "Band Gap (eV)": 0.0,
                "Formation Energy per Atom (eV)": -1.1520051537500002,
                "Energy Above Hull (eV/atom)": 0.06572968405487778,
                "Energy per Atom (eV/atom)": -8.2718374575,
                "Total Magnetization (\u03bcB)": 4e-07,
                "Magnetic Ordering": "NM",
                "Bulk Modulus (GPa)": 178.15,
                "Shear Modulus (GPa)": 100.771,
                "Fermi Energy (eV)": 7.90156033,
                "Total Energy (eV)": -5.89365,
                "Crystal System": "hexagonal",
                "Magpie Descriptors": {
                    "MagpieData minimum Number": 16.0,
                    "MagpieData maximum Number": 41.0,
                    "MagpieData range Number": 25.0,
                    "MagpieData mean Number": 28.5,
                    "MagpieData avg_dev Number": 12.5,
                    "MagpieData mode Number": 16.0,
                    "MagpieData std_dev Number": 17.67766952966369,
                    "MagpieData minimum MendeleevNumber": 47.0,
                    "MagpieData maximum MendeleevNumber": 88.0,
                    "MagpieData range MendeleevNumber": 41.0,
                    "MagpieData mean MendeleevNumber": 67.5,
                    "MagpieData avg_dev MendeleevNumber": 20.5,
                    "MagpieData mode MendeleevNumber": 47.0,
                    "MagpieData std_dev MendeleevNumber": 28.991378028648448,
                    "MagpieData minimum AtomicWeight": 32.065,
                    "MagpieData maximum AtomicWeight": 92.90638,
                    "MagpieData range AtomicWeight": 60.84138,
                    "MagpieData mean AtomicWeight": 62.48569,
                    "MagpieData avg_dev AtomicWeight": 30.42069,
                    "MagpieData mode AtomicWeight": 32.065,
                    "MagpieData std_dev AtomicWeight": 43.021352374747586,
                    "MagpieData minimum MeltingT": 388.36,
                    "MagpieData maximum MeltingT": 2750.0,
                    "MagpieData range MeltingT": 2361.64,
                    "MagpieData mean MeltingT": 1569.18,
                    "MagpieData avg_dev MeltingT": 1180.8200000000002,
                    "MagpieData mode MeltingT": 388.36,
                    "MagpieData std_dev MeltingT": 1669.9316587213982,
                    "MagpieData minimum Column": 5.0,
                    "MagpieData maximum Column": 16.0,
                    "MagpieData range Column": 11.0,
                    "MagpieData mean Column": 10.5,
                    "MagpieData avg_dev Column": 5.5,
                    "MagpieData mode Column": 5.0,
                    "MagpieData std_dev Column": 7.7781745930520225,
                    "MagpieData minimum Row": 3.0,
                    "MagpieData maximum Row": 5.0,
                    "MagpieData range Row": 2.0,
                    "MagpieData mean Row": 4.0,
                    "MagpieData avg_dev Row": 1.0,
                    "MagpieData mode Row": 3.0,
                    "MagpieData std_dev Row": 1.4142135623730951,
                    "MagpieData minimum CovalentRadius": 105.0,
                    "MagpieData maximum CovalentRadius": 164.0,
                    "MagpieData range CovalentRadius": 59.0,
                    "MagpieData mean CovalentRadius": 134.5,
                    "MagpieData avg_dev CovalentRadius": 29.5,
                    "MagpieData mode CovalentRadius": 105.0,
                    "MagpieData std_dev CovalentRadius": 41.71930009000631,
                    "MagpieData minimum Electronegativity": 1.6,
                    "MagpieData maximum Electronegativity": 2.58,
                    "MagpieData range Electronegativity": 0.98,
                    "MagpieData mean Electronegativity": 2.09,
                    "MagpieData avg_dev Electronegativity": 0.49,
                    "MagpieData mode Electronegativity": 1.6,
                    "MagpieData std_dev Electronegativity": 0.6929646455628166,
                    "MagpieData minimum NsValence": 1.0,
                    "MagpieData maximum NsValence": 2.0,
                    "MagpieData range NsValence": 1.0,
                    "MagpieData mean NsValence": 1.5,
                    "MagpieData avg_dev NsValence": 0.5,
                    "MagpieData mode NsValence": 1.0,
                    "MagpieData std_dev NsValence": 0.7071067811865476,
                    "MagpieData minimum NpValence": 0.0,
                    "MagpieData maximum NpValence": 4.0,
                    "MagpieData range NpValence": 4.0,
                    "MagpieData mean NpValence": 2.0,
                    "MagpieData avg_dev NpValence": 2.0,
                    "MagpieData mode NpValence": 0.0,
                    "MagpieData std_dev NpValence": 2.8284271247461903,
                    "MagpieData minimum NdValence": 0.0,
                    "MagpieData maximum NdValence": 4.0,
                    "MagpieData range NdValence": 4.0,
                    "MagpieData mean NdValence": 2.0,
                    "MagpieData avg_dev NdValence": 2.0,
                    "MagpieData mode NdValence": 0.0,
                    "MagpieData std_dev NdValence": 2.8284271247461903,
                    "MagpieData minimum NfValence": 0.0,
                    "MagpieData maximum NfValence": 0.0,
                    "MagpieData range NfValence": 0.0,
                    "MagpieData mean NfValence": 0.0,
                    "MagpieData avg_dev NfValence": 0.0,
                    "MagpieData mode NfValence": 0.0,
                    "MagpieData std_dev NfValence": 0.0,
                    "MagpieData minimum NValence": 5.0,
                    "MagpieData maximum NValence": 6.0,
                    "MagpieData range NValence": 1.0,
                    "MagpieData mean NValence": 5.5,
                    "MagpieData avg_dev NValence": 0.5,
                    "MagpieData mode NValence": 5.0,
                    "MagpieData std_dev NValence": 0.7071067811865476,
                    "MagpieData minimum NsUnfilled": 0.0,
                    "MagpieData maximum NsUnfilled": 1.0,
                    "MagpieData range NsUnfilled": 1.0,
                    "MagpieData mean NsUnfilled": 0.5,
                    "MagpieData avg_dev NsUnfilled": 0.5,
                    "MagpieData mode NsUnfilled": 0.0,
                    "MagpieData std_dev NsUnfilled": 0.7071067811865476,
                    "MagpieData minimum NpUnfilled": 0.0,
                    "MagpieData maximum NpUnfilled": 2.0,
                    "MagpieData range NpUnfilled": 2.0,
                    "MagpieData mean NpUnfilled": 1.0,
                    "MagpieData avg_dev NpUnfilled": 1.0,
                    "MagpieData mode NpUnfilled": 0.0,
                    "MagpieData std_dev NpUnfilled": 1.4142135623730951,
                    "MagpieData minimum NdUnfilled": 0.0,
                    "MagpieData maximum NdUnfilled": 6.0,
                    "MagpieData range NdUnfilled": 6.0,
                    "MagpieData mean NdUnfilled": 3.0,
                    "MagpieData avg_dev NdUnfilled": 3.0,
                    "MagpieData mode NdUnfilled": 0.0,
                    "MagpieData std_dev NdUnfilled": 4.242640687119285,
                    "MagpieData minimum NfUnfilled": 0.0,
                    "MagpieData maximum NfUnfilled": 0.0,
                    "MagpieData range NfUnfilled": 0.0,
                    "MagpieData mean NfUnfilled": 0.0,
                    "MagpieData avg_dev NfUnfilled": 0.0,
                    "MagpieData mode NfUnfilled": 0.0,
                    "MagpieData std_dev NfUnfilled": 0.0,
                    "MagpieData minimum NUnfilled": 2.0,
                    "MagpieData maximum NUnfilled": 7.0,
                    "MagpieData range NUnfilled": 5.0,
                    "MagpieData mean NUnfilled": 4.5,
                    "MagpieData avg_dev NUnfilled": 2.5,
                    "MagpieData mode NUnfilled": 2.0,
                    "MagpieData std_dev NUnfilled": 3.5355339059327378,
                    "MagpieData minimum GSvolume_pa": 18.18,
                    "MagpieData maximum GSvolume_pa": 25.786875,
                    "MagpieData range GSvolume_pa": 7.606874999999999,
                    "MagpieData mean GSvolume_pa": 21.9834375,
                    "MagpieData avg_dev GSvolume_pa": 3.8034374999999994,
                    "MagpieData mode GSvolume_pa": 18.18,
                    "MagpieData std_dev GSvolume_pa": 5.378872896138418,
                    "MagpieData minimum GSbandgap": 0.0,
                    "MagpieData maximum GSbandgap": 2.202,
                    "MagpieData range GSbandgap": 2.202,
                    "MagpieData mean GSbandgap": 1.101,
                    "MagpieData avg_dev GSbandgap": 1.101,
                    "MagpieData mode GSbandgap": 0.0,
                    "MagpieData std_dev GSbandgap": 1.5570491321727775,
                    "MagpieData minimum GSmagmom": 0.0,
                    "MagpieData maximum GSmagmom": 0.0,
                    "MagpieData range GSmagmom": 0.0,
                    "MagpieData mean GSmagmom": 0.0,
                    "MagpieData avg_dev GSmagmom": 0.0,
                    "MagpieData mode GSmagmom": 0.0,
                    "MagpieData std_dev GSmagmom": 0.0,
                    "MagpieData minimum SpaceGroupNumber": 70.0,
                    "MagpieData maximum SpaceGroupNumber": 229.0,
                    "MagpieData range SpaceGroupNumber": 159.0,
                    "MagpieData mean SpaceGroupNumber": 149.5,
                    "MagpieData avg_dev SpaceGroupNumber": 79.5,
                    "MagpieData mode SpaceGroupNumber": 70.0,
                    "MagpieData std_dev SpaceGroupNumber": 112.42997820866105
                }
            }
        }
    ],
    "test_operating_temperature_celsius": 25.0,
    "min_pH_when_testing": -1.0,
    "max_pH_when_testing": -1.0,
    "test_medium_electrolyte": [
        {
            "substance_name": "oxygen",
            "substance_type": "small molecule",
            "substance_descriptors": {
                "CID": 977,
                "MolecularFormula": "O2",
                "MolecularWeight": "31.999",
                "CanonicalSMILES": "O=O",
                "IsomericSMILES": "O=O",
                "InChI": "InChI=1S/O2/c1-2",
                "InChIKey": "MYMOFIZGZYHOMD-UHFFFAOYSA-N",
                "IUPACName": "molecular oxygen",
                "XLogP": -1.1,
                "ExactMass": "31.989829239",
                "MonoisotopicMass": "31.989829239",
                "TPSA": 34.1,
                "Complexity": 0,
                "Charge": 0,
                "HBondDonorCount": 0,
                "HBondAcceptorCount": 2,
                "RotatableBondCount": 0,
                "HeavyAtomCount": 2,
                "IsotopeAtomCount": 0,
                "AtomStereoCount": 0,
                "DefinedAtomStereoCount": 0,
                "UndefinedAtomStereoCount": 0,
                "BondStereoCount": 0,
                "DefinedBondStereoCount": 0,
                "UndefinedBondStereoCount": 0,
                "CovalentUnitCount": 1,
                "Volume3D": 22.9,
                "XStericQuadrupole3D": 0.87,
                "YStericQuadrupole3D": 0.49,
                "ZStericQuadrupole3D": 0.49,
                "FeatureAcceptorCount3D": 0,
                "FeatureDonorCount3D": 0,
                "FeatureAnionCount3D": 0,
                "FeatureCationCount3D": 0,
                "FeatureRingCount3D": 0,
                "FeatureHydrophobeCount3D": 0,
                "ConformerModelRMSD3D": 0.4,
                "EffectiveRotorCount3D": 0,
                "ConformerCount3D": 1,
                "Morgan_128": [
                    0,
                    0,
                    0,
                    0,
                    0,
                    0,
                    0,
                    0,
                    0,
                    0,
                    1,
                    0,
                    0,
                    0,
                    0,
                    0,
                    1,
                    0,
                    0,
                    0,
                    0,
                    0,
                    0,
                    0,
                    0,
                    0,
                    0,
                    0,
                    0,
                    0,
                    0,
                    0,
                    0,
                    0,
                    0,
                    0,
                    0,
                    0,
                    0,
                    0,
                    0,
                    0,
                    0,
                    0,
                    0,
                    0,
                    0,
                    0,
                    0,
                    0,
                    0,
                    0,
                    0,
                    0,
                    0,
                    0,
                    0,
                    0,
                    0,
                    0,
                    0,
                    0,
                    0,
                    0,
                    0,
                    0,
                    0,
                    0,
                    0,
                    0,
                    0,
                    0,
                    0,
                    0,
                    0,
                    0,
                    0,
                    0,
                    0,
                    0,
                    0,
                    0,
                    0,
                    0,
                    0,
                    0,
                    0,
                    0,
                    0,
                    0,
                    0,
                    0,
                    0,
                    0,
                    0,
                    0,
                    0,
                    0,
                    0,
                    0,
                    0,
                    0,
                    0,
                    0,
                    0,
                    0,
                    0,
                    0,
                    0,
                    0,
                    0,
                    0,
                    0,
                    0,
                    0,
                    0,
                    0,
                    0,
                    0,
                    0,
                    0,
                    0,
                    0,
                    0,
                    0,
                    0,
                    0,
                    0
                ]
            }
        },
        {
            "substance_name": "nitrogen",
            "substance_type": "small molecule",
            "substance_descriptors": {
                "CID": 947,
                "MolecularFormula": "N2",
                "MolecularWeight": "28.014",
                "CanonicalSMILES": "N#N",
                "IsomericSMILES": "N#N",
                "InChI": "InChI=1S/N2/c1-2",
                "InChIKey": "IJGRMHOSHXDMSA-UHFFFAOYSA-N",
                "IUPACName": "molecular nitrogen",
                "XLogP": 0.1,
                "ExactMass": "28.006148008",
                "MonoisotopicMass": "28.006148008",
                "TPSA": 47.6,
                "Complexity": 8,
                "Charge": 0,
                "HBondDonorCount": 0,
                "HBondAcceptorCount": 2,
                "RotatableBondCount": 0,
                "HeavyAtomCount": 2,
                "IsotopeAtomCount": 0,
                "AtomStereoCount": 0,
                "DefinedAtomStereoCount": 0,
                "UndefinedAtomStereoCount": 0,
                "BondStereoCount": 0,
                "DefinedBondStereoCount": 0,
                "UndefinedBondStereoCount": 0,
                "CovalentUnitCount": 1,
                "Volume3D": 23.1,
                "XStericQuadrupole3D": 0.82,
                "YStericQuadrupole3D": 0.51,
                "ZStericQuadrupole3D": 0.51,
                "FeatureAcceptorCount3D": 0,
                "FeatureDonorCount3D": 0,
                "FeatureAnionCount3D": 0,
                "FeatureCationCount3D": 0,
                "FeatureRingCount3D": 0,
                "FeatureHydrophobeCount3D": 0,
                "ConformerModelRMSD3D": 0.4,
                "EffectiveRotorCount3D": 0,
                "ConformerCount3D": 1,
                "Morgan_128": [
                    0,
                    0,
                    0,
                    0,
                    0,
                    0,
                    0,
                    0,
                    0,
                    0,
                    0,
                    0,
                    0,
                    0,
                    0,
                    0,
                    0,
                    0,
                    0,
                    0,
                    0,
                    0,
                    0,
                    0,
                    0,
                    0,
                    0,
                    0,
                    0,
                    0,
                    0,
                    0,
                    0,
                    0,
                    0,
                    0,
                    0,
                    0,
                    0,
                    0,
                    0,
                    0,
                    0,
                    0,
                    0,
                    0,
                    0,
                    0,
                    0,
                    0,
                    0,
                    0,
                    0,
                    0,
                    0,
                    0,
                    0,
                    0,
                    0,
                    0,
                    0,
                    0,
                    0,
                    0,
                    0,
                    0,
                    0,
                    0,
                    0,
                    0,
                    0,
                    0,
                    0,
                    0,
                    0,
                    0,
                    1,
                    0,
                    0,
                    0,
                    0,
                    0,
                    0,
                    0,
                    0,
                    0,
                    0,
                    0,
                    0,
                    0,
                    0,
                    0,
                    0,
                    0,
                    0,
                    0,
                    0,
                    0,
                    0,
                    0,
                    0,
                    0,
                    0,
                    0,
                    1,
                    0,
                    0,
                    0,
                    0,
                    0,
                    0,
                    0,
                    0,
                    0,
                    0,
                    0,
                    0,
                    0,
                    0,
                    0,
                    0,
                    0,
                    0,
                    0,
                    0,
                    0,
                    0,
                    0
                ]
            }
        }
    ],
    "LDL_ranking": 1.0,
    "UDL_ranking": 1.0,
    "LDL_category": "Moderate Detection",
    "UDL_category": "Moderate UDL Range"
}