{
    "DOI": "10.1021/acsnano.7b06853",
    "sensor_type": "gas",
    "detect_target": [
        {
            "substance_name": "nitrogen dioxide",
            "substance_type": "small molecule",
            "substance_descriptors": {
                "CID": 3032552,
                "MolecularFormula": "NO2",
                "MolecularWeight": "46.006",
                "CanonicalSMILES": "N(=O)[O]",
                "IsomericSMILES": "N(=O)[O]",
                "InChI": "InChI=1S/NO2/c2-1-3",
                "InChIKey": "JCXJVPUVTGWSNB-UHFFFAOYSA-N",
                "XLogP": -0.3,
                "ExactMass": "45.992903243",
                "MonoisotopicMass": "45.992903243",
                "TPSA": 30.4,
                "Complexity": 7,
                "Charge": 0,
                "HBondDonorCount": 0,
                "HBondAcceptorCount": 2,
                "RotatableBondCount": 0,
                "HeavyAtomCount": 3,
                "IsotopeAtomCount": 0,
                "AtomStereoCount": 0,
                "DefinedAtomStereoCount": 0,
                "UndefinedAtomStereoCount": 0,
                "BondStereoCount": 0,
                "DefinedBondStereoCount": 0,
                "UndefinedBondStereoCount": 0,
                "CovalentUnitCount": 1,
                "ConformerCount3D": 0,
                "Morgan_128": [
                    0,
                    0,
                    0,
                    0,
                    0,
                    0,
                    0,
                    0,
                    0,
                    0,
                    1,
                    0,
                    1,
                    0,
                    0,
                    0,
                    0,
                    0,
                    0,
                    0,
                    0,
                    0,
                    0,
                    0,
                    0,
                    0,
                    0,
                    0,
                    0,
                    0,
                    0,
                    0,
                    0,
                    0,
                    0,
                    0,
                    0,
                    0,
                    0,
                    0,
                    0,
                    0,
                    0,
                    0,
                    0,
                    0,
                    0,
                    0,
                    0,
                    0,
                    0,
                    0,
                    1,
                    0,
                    0,
                    0,
                    0,
                    0,
                    0,
                    0,
                    0,
                    0,
                    0,
                    0,
                    0,
                    0,
                    0,
                    0,
                    0,
                    0,
                    0,
                    0,
                    0,
                    0,
                    0,
                    0,
                    0,
                    0,
                    0,
                    0,
                    0,
                    0,
                    0,
                    1,
                    0,
                    1,
                    0,
                    0,
                    0,
                    0,
                    0,
                    0,
                    0,
                    0,
                    0,
                    0,
                    0,
                    0,
                    0,
                    0,
                    0,
                    0,
                    0,
                    0,
                    0,
                    0,
                    0,
                    0,
                    0,
                    0,
                    0,
                    0,
                    0,
                    0,
                    0,
                    0,
                    0,
                    0,
                    0,
                    0,
                    0,
                    0,
                    0,
                    0,
                    0,
                    0,
                    0,
                    0
                ]
            }
        }
    ],
    "lower_detection_limit_log_ppm": -3.318758763,
    "upper_detection_limit_log_ppm": -0.12767523,
    "probe_material": [
        {
            "substance_name": "tantalum trisulfide",
            "substance_type": "inorganic solid",
            "substance_descriptors": {
                "Number of Elements": 2,
                "Element Types": [
                    "S",
                    "Ta"
                ],
                "Number of Atoms in Unit Cell": 24,
                "Lattice Parameter a (\u00c5)": "9.515",
                "Lattice Parameter b (\u00c5)": "3.3412",
                "Lattice Parameter c (\u00c5)": "14.912",
                "Lattice Angle alpha (degrees)": "90",
                "Lattice Angle beta (degrees)": "109.99",
                "Lattice Angle gamma (degrees)": "90",
                "Unit Cell Volume (\u00c5\u00b3)": 469.4702551300723,
                "Density (g/cm\u00b3)": 5.881606865285172,
                "Space Group Number": 41,
                "Is Metallic (1/0)": 1,
                "Band Gap (eV)": 0.0,
                "Formation Energy per Atom (eV)": -1.1729329341250008,
                "Energy Above Hull (eV/atom)": 0.0,
                "Energy per Atom (eV/atom)": -7.243434495416669,
                "Total Magnetization (\u03bcB)": 2e-07,
                "Magnetic Ordering": "NM",
                "Bulk Modulus (GPa)": -99999,
                "Shear Modulus (GPa)": -99999,
                "Fermi Energy (eV)": 4.88547172,
                "Total Energy (eV)": -4.21776,
                "Crystal System": "orthorhombic",
                "Magpie Descriptors": {
                    "MagpieData minimum Number": 16.0,
                    "MagpieData maximum Number": 73.0,
                    "MagpieData range Number": 57.0,
                    "MagpieData mean Number": 58.75,
                    "MagpieData avg_dev Number": 21.375,
                    "MagpieData mode Number": 73.0,
                    "MagpieData std_dev Number": 40.30508652763321,
                    "MagpieData minimum MendeleevNumber": 48.0,
                    "MagpieData maximum MendeleevNumber": 88.0,
                    "MagpieData range MendeleevNumber": 40.0,
                    "MagpieData mean MendeleevNumber": 58.0,
                    "MagpieData avg_dev MendeleevNumber": 15.0,
                    "MagpieData mode MendeleevNumber": 48.0,
                    "MagpieData std_dev MendeleevNumber": 28.284271247461902,
                    "MagpieData minimum AtomicWeight": 32.065,
                    "MagpieData maximum AtomicWeight": 180.94788,
                    "MagpieData range AtomicWeight": 148.88288,
                    "MagpieData mean AtomicWeight": 143.72716000000003,
                    "MagpieData avg_dev AtomicWeight": 55.831079999999986,
                    "MagpieData mode AtomicWeight": 180.94788,
                    "MagpieData std_dev AtomicWeight": 105.27609405058301,
                    "MagpieData minimum MeltingT": 388.36,
                    "MagpieData maximum MeltingT": 3290.0,
                    "MagpieData range MeltingT": 2901.64,
                    "MagpieData mean MeltingT": 2564.59,
                    "MagpieData avg_dev MeltingT": 1088.1149999999998,
                    "MagpieData mode MeltingT": 3290.0,
                    "MagpieData std_dev MeltingT": 2051.7693205621335,
                    "MagpieData minimum Column": 5.0,
                    "MagpieData maximum Column": 16.0,
                    "MagpieData range Column": 11.0,
                    "MagpieData mean Column": 7.75,
                    "MagpieData avg_dev Column": 4.125,
                    "MagpieData mode Column": 5.0,
                    "MagpieData std_dev Column": 7.7781745930520225,
                    "MagpieData minimum Row": 3.0,
                    "MagpieData maximum Row": 6.0,
                    "MagpieData range Row": 3.0,
                    "MagpieData mean Row": 5.25,
                    "MagpieData avg_dev Row": 1.125,
                    "MagpieData mode Row": 6.0,
                    "MagpieData std_dev Row": 2.1213203435596424,
                    "MagpieData minimum CovalentRadius": 105.0,
                    "MagpieData maximum CovalentRadius": 170.0,
                    "MagpieData range CovalentRadius": 65.0,
                    "MagpieData mean CovalentRadius": 153.75,
                    "MagpieData avg_dev CovalentRadius": 24.375,
                    "MagpieData mode CovalentRadius": 170.0,
                    "MagpieData std_dev CovalentRadius": 45.96194077712559,
                    "MagpieData minimum Electronegativity": 1.5,
                    "MagpieData maximum Electronegativity": 2.58,
                    "MagpieData range Electronegativity": 1.08,
                    "MagpieData mean Electronegativity": 1.77,
                    "MagpieData avg_dev Electronegativity": 0.405,
                    "MagpieData mode Electronegativity": 1.5,
                    "MagpieData std_dev Electronegativity": 0.7636753236814714,
                    "MagpieData minimum NsValence": 2.0,
                    "MagpieData maximum NsValence": 2.0,
                    "MagpieData range NsValence": 0.0,
                    "MagpieData mean NsValence": 2.0,
                    "MagpieData avg_dev NsValence": 0.0,
                    "MagpieData mode NsValence": 2.0,
                    "MagpieData std_dev NsValence": 0.0,
                    "MagpieData minimum NpValence": 0.0,
                    "MagpieData maximum NpValence": 4.0,
                    "MagpieData range NpValence": 4.0,
                    "MagpieData mean NpValence": 1.0,
                    "MagpieData avg_dev NpValence": 1.5,
                    "MagpieData mode NpValence": 0.0,
                    "MagpieData std_dev NpValence": 2.8284271247461903,
                    "MagpieData minimum NdValence": 0.0,
                    "MagpieData maximum NdValence": 3.0,
                    "MagpieData range NdValence": 3.0,
                    "MagpieData mean NdValence": 2.25,
                    "MagpieData avg_dev NdValence": 1.125,
                    "MagpieData mode NdValence": 3.0,
                    "MagpieData std_dev NdValence": 2.1213203435596424,
                    "MagpieData minimum NfValence": 0.0,
                    "MagpieData maximum NfValence": 14.0,
                    "MagpieData range NfValence": 14.0,
                    "MagpieData mean NfValence": 10.5,
                    "MagpieData avg_dev NfValence": 5.25,
                    "MagpieData mode NfValence": 14.0,
                    "MagpieData std_dev NfValence": 9.899494936611665,
                    "MagpieData minimum NValence": 6.0,
                    "MagpieData maximum NValence": 19.0,
                    "MagpieData range NValence": 13.0,
                    "MagpieData mean NValence": 15.75,
                    "MagpieData avg_dev NValence": 4.875,
                    "MagpieData mode NValence": 19.0,
                    "MagpieData std_dev NValence": 9.192388155425117,
                    "MagpieData minimum NsUnfilled": 0.0,
                    "MagpieData maximum NsUnfilled": 0.0,
                    "MagpieData range NsUnfilled": 0.0,
                    "MagpieData mean NsUnfilled": 0.0,
                    "MagpieData avg_dev NsUnfilled": 0.0,
                    "MagpieData mode NsUnfilled": 0.0,
                    "MagpieData std_dev NsUnfilled": 0.0,
                    "MagpieData minimum NpUnfilled": 0.0,
                    "MagpieData maximum NpUnfilled": 2.0,
                    "MagpieData range NpUnfilled": 2.0,
                    "MagpieData mean NpUnfilled": 0.5,
                    "MagpieData avg_dev NpUnfilled": 0.75,
                    "MagpieData mode NpUnfilled": 0.0,
                    "MagpieData std_dev NpUnfilled": 1.4142135623730951,
                    "MagpieData minimum NdUnfilled": 0.0,
                    "MagpieData maximum NdUnfilled": 7.0,
                    "MagpieData range NdUnfilled": 7.0,
                    "MagpieData mean NdUnfilled": 5.25,
                    "MagpieData avg_dev NdUnfilled": 2.625,
                    "MagpieData mode NdUnfilled": 7.0,
                    "MagpieData std_dev NdUnfilled": 4.949747468305833,
                    "MagpieData minimum NfUnfilled": 0.0,
                    "MagpieData maximum NfUnfilled": 0.0,
                    "MagpieData range NfUnfilled": 0.0,
                    "MagpieData mean NfUnfilled": 0.0,
                    "MagpieData avg_dev NfUnfilled": 0.0,
                    "MagpieData mode NfUnfilled": 0.0,
                    "MagpieData std_dev NfUnfilled": 0.0,
                    "MagpieData minimum NUnfilled": 2.0,
                    "MagpieData maximum NUnfilled": 7.0,
                    "MagpieData range NUnfilled": 5.0,
                    "MagpieData mean NUnfilled": 5.75,
                    "MagpieData avg_dev NUnfilled": 1.875,
                    "MagpieData mode NUnfilled": 7.0,
                    "MagpieData std_dev NUnfilled": 3.5355339059327378,
                    "MagpieData minimum GSvolume_pa": 18.12,
                    "MagpieData maximum GSvolume_pa": 25.786875,
                    "MagpieData range GSvolume_pa": 7.666874999999997,
                    "MagpieData mean GSvolume_pa": 20.03671875,
                    "MagpieData avg_dev GSvolume_pa": 2.875078124999998,
                    "MagpieData mode GSvolume_pa": 18.12,
                    "MagpieData std_dev GSvolume_pa": 5.42129930300961,
                    "MagpieData minimum GSbandgap": 0.0,
                    "MagpieData maximum GSbandgap": 2.202,
                    "MagpieData range GSbandgap": 2.202,
                    "MagpieData mean GSbandgap": 0.5505,
                    "MagpieData avg_dev GSbandgap": 0.82575,
                    "MagpieData mode GSbandgap": 0.0,
                    "MagpieData std_dev GSbandgap": 1.5570491321727775,
                    "MagpieData minimum GSmagmom": 0.0,
                    "MagpieData maximum GSmagmom": 0.0,
                    "MagpieData range GSmagmom": 0.0,
                    "MagpieData mean GSmagmom": 0.0,
                    "MagpieData avg_dev GSmagmom": 0.0,
                    "MagpieData mode GSmagmom": 0.0,
                    "MagpieData std_dev GSmagmom": 0.0,
                    "MagpieData minimum SpaceGroupNumber": 70.0,
                    "MagpieData maximum SpaceGroupNumber": 229.0,
                    "MagpieData range SpaceGroupNumber": 159.0,
                    "MagpieData mean SpaceGroupNumber": 189.25,
                    "MagpieData avg_dev SpaceGroupNumber": 59.625,
                    "MagpieData mode SpaceGroupNumber": 229.0,
                    "MagpieData std_dev SpaceGroupNumber": 112.42997820866105
                }
            }
        }
    ],
    "test_operating_temperature_celsius": 27.5,
    "min_pH_when_testing": -1.0,
    "max_pH_when_testing": -1.0,
    "test_medium_electrolyte": [
        {
            "substance_name": "nitrogen",
            "substance_type": "small molecule",
            "substance_descriptors": {
                "CID": 947,
                "MolecularFormula": "N2",
                "MolecularWeight": "28.014",
                "CanonicalSMILES": "N#N",
                "IsomericSMILES": "N#N",
                "InChI": "InChI=1S/N2/c1-2",
                "InChIKey": "IJGRMHOSHXDMSA-UHFFFAOYSA-N",
                "IUPACName": "molecular nitrogen",
                "XLogP": 0.1,
                "ExactMass": "28.006148008",
                "MonoisotopicMass": "28.006148008",
                "TPSA": 47.6,
                "Complexity": 8,
                "Charge": 0,
                "HBondDonorCount": 0,
                "HBondAcceptorCount": 2,
                "RotatableBondCount": 0,
                "HeavyAtomCount": 2,
                "IsotopeAtomCount": 0,
                "AtomStereoCount": 0,
                "DefinedAtomStereoCount": 0,
                "UndefinedAtomStereoCount": 0,
                "BondStereoCount": 0,
                "DefinedBondStereoCount": 0,
                "UndefinedBondStereoCount": 0,
                "CovalentUnitCount": 1,
                "Volume3D": 23.1,
                "XStericQuadrupole3D": 0.82,
                "YStericQuadrupole3D": 0.51,
                "ZStericQuadrupole3D": 0.51,
                "FeatureAcceptorCount3D": 0,
                "FeatureDonorCount3D": 0,
                "FeatureAnionCount3D": 0,
                "FeatureCationCount3D": 0,
                "FeatureRingCount3D": 0,
                "FeatureHydrophobeCount3D": 0,
                "ConformerModelRMSD3D": 0.4,
                "EffectiveRotorCount3D": 0,
                "ConformerCount3D": 1,
                "Morgan_128": [
                    0,
                    0,
                    0,
                    0,
                    0,
                    0,
                    0,
                    0,
                    0,
                    0,
                    0,
                    0,
                    0,
                    0,
                    0,
                    0,
                    0,
                    0,
                    0,
                    0,
                    0,
                    0,
                    0,
                    0,
                    0,
                    0,
                    0,
                    0,
                    0,
                    0,
                    0,
                    0,
                    0,
                    0,
                    0,
                    0,
                    0,
                    0,
                    0,
                    0,
                    0,
                    0,
                    0,
                    0,
                    0,
                    0,
                    0,
                    0,
                    0,
                    0,
                    0,
                    0,
                    0,
                    0,
                    0,
                    0,
                    0,
                    0,
                    0,
                    0,
                    0,
                    0,
                    0,
                    0,
                    0,
                    0,
                    0,
                    0,
                    0,
                    0,
                    0,
                    0,
                    0,
                    0,
                    0,
                    0,
                    1,
                    0,
                    0,
                    0,
                    0,
                    0,
                    0,
                    0,
                    0,
                    0,
                    0,
                    0,
                    0,
                    0,
                    0,
                    0,
                    0,
                    0,
                    0,
                    0,
                    0,
                    0,
                    0,
                    0,
                    0,
                    0,
                    0,
                    0,
                    1,
                    0,
                    0,
                    0,
                    0,
                    0,
                    0,
                    0,
                    0,
                    0,
                    0,
                    0,
                    0,
                    0,
                    0,
                    0,
                    0,
                    0,
                    0,
                    0,
                    0,
                    0,
                    0,
                    0
                ]
            }
        }
    ],
    "LDL_ranking": 1.0,
    "UDL_ranking": 1.0,
    "LDL_category": "Low Detection",
    "UDL_category": "Low UDL Range"
}