{
    "DOI": "10.1002/celc.201701117",
    "sensor_type": "gas",
    "detect_target": [
        {
            "substance_name": "nitrogen dioxide",
            "substance_type": "small molecule",
            "substance_descriptors": {
                "CID": 3032552,
                "MolecularFormula": "NO2",
                "MolecularWeight": "46.006",
                "CanonicalSMILES": "N(=O)[O]",
                "IsomericSMILES": "N(=O)[O]",
                "InChI": "InChI=1S/NO2/c2-1-3",
                "InChIKey": "JCXJVPUVTGWSNB-UHFFFAOYSA-N",
                "XLogP": -0.3,
                "ExactMass": "45.992903243",
                "MonoisotopicMass": "45.992903243",
                "TPSA": 30.4,
                "Complexity": 7,
                "Charge": 0,
                "HBondDonorCount": 0,
                "HBondAcceptorCount": 2,
                "RotatableBondCount": 0,
                "HeavyAtomCount": 3,
                "IsotopeAtomCount": 0,
                "AtomStereoCount": 0,
                "DefinedAtomStereoCount": 0,
                "UndefinedAtomStereoCount": 0,
                "BondStereoCount": 0,
                "DefinedBondStereoCount": 0,
                "UndefinedBondStereoCount": 0,
                "CovalentUnitCount": 1,
                "ConformerCount3D": 0,
                "Morgan_128": [
                    0,
                    0,
                    0,
                    0,
                    0,
                    0,
                    0,
                    0,
                    0,
                    0,
                    1,
                    0,
                    1,
                    0,
                    0,
                    0,
                    0,
                    0,
                    0,
                    0,
                    0,
                    0,
                    0,
                    0,
                    0,
                    0,
                    0,
                    0,
                    0,
                    0,
                    0,
                    0,
                    0,
                    0,
                    0,
                    0,
                    0,
                    0,
                    0,
                    0,
                    0,
                    0,
                    0,
                    0,
                    0,
                    0,
                    0,
                    0,
                    0,
                    0,
                    0,
                    0,
                    1,
                    0,
                    0,
                    0,
                    0,
                    0,
                    0,
                    0,
                    0,
                    0,
                    0,
                    0,
                    0,
                    0,
                    0,
                    0,
                    0,
                    0,
                    0,
                    0,
                    0,
                    0,
                    0,
                    0,
                    0,
                    0,
                    0,
                    0,
                    0,
                    0,
                    0,
                    1,
                    0,
                    1,
                    0,
                    0,
                    0,
                    0,
                    0,
                    0,
                    0,
                    0,
                    0,
                    0,
                    0,
                    0,
                    0,
                    0,
                    0,
                    0,
                    0,
                    0,
                    0,
                    0,
                    0,
                    0,
                    0,
                    0,
                    0,
                    0,
                    0,
                    0,
                    0,
                    0,
                    0,
                    0,
                    0,
                    0,
                    0,
                    0,
                    0,
                    0,
                    0,
                    0,
                    0,
                    0
                ]
            }
        }
    ],
    "lower_detection_limit_log_ppm": -0.301029996,
    "upper_detection_limit_log_ppm": 0.477121255,
    "probe_material": [
        {
            "substance_name": "1,4,8,11,15,18,22,25-octabutoxy-29h,31h-phthalocyanine",
            "substance_type": "small molecule",
            "substance_descriptors": {
                "CID": 135421174,
                "MolecularFormula": "C64H82N8O8",
                "MolecularWeight": "1091.4",
                "CanonicalSMILES": "CCCCOC1=C2C(=C(C=C1)OCCCC)C3=NC4=NC(=NC5=C6C(=CC=C(C6=C(N5)N=C7C8=C(C=CC(=C8C(=N7)N=C2N3)OCCCC)OCCCC)OCCCC)OCCCC)C9=C(C=CC(=C94)OCCCC)OCCCC",
                "IsomericSMILES": "CCCCOC1=C2C(=C(C=C1)OCCCC)C3=NC4=NC(=NC5=C6C(=CC=C(C6=C(N5)N=C7C8=C(C=CC(=C8C(=N7)N=C2N3)OCCCC)OCCCC)OCCCC)OCCCC)C9=C(C=CC(=C94)OCCCC)OCCCC",
                "InChI": "InChI=1S/C64H82N8O8/c1-9-17-33-73-41-25-26-42(74-34-18-10-2)50-49(41)57-65-58(50)70-60-53-45(77-37-21-13-5)29-30-46(78-38-22-14-6)54(53)62(67-60)72-64-56-48(80-40-24-16-8)32-31-47(79-39-23-15-7)55(56)63(68-64)71-61-52-44(76-36-20-12-4)28-27-43(75-35-19-11-3)51(52)59(66-61)69-57/h25-32H,9-24,33-40H2,1-8H3,(H2,65,66,67,68,69,70,71,72)",
                "InChIKey": "KAPOSTKECKHKAP-UHFFFAOYSA-N",
                "IUPACName": "5,8,14,17,23,26,32,35-octabutoxy-2,11,20,29,37,38,39,40-octazanonacyclo[28.6.1.13,10.112,19.121,28.04,9.013,18.022,27.031,36]tetraconta-1,3,5,7,9,11,13,15,17,19(39),20,22,24,26,28,30(37),31,33,35-nonadecaene",
                "XLogP": 16.1,
                "ExactMass": "1090.62556160",
                "MonoisotopicMass": "1090.62556160",
                "TPSA": 183,
                "Complexity": 1500,
                "Charge": 0,
                "HBondDonorCount": 2,
                "HBondAcceptorCount": 14,
                "RotatableBondCount": 32,
                "HeavyAtomCount": 80,
                "IsotopeAtomCount": 0,
                "AtomStereoCount": 0,
                "DefinedAtomStereoCount": 0,
                "UndefinedAtomStereoCount": 0,
                "BondStereoCount": 0,
                "DefinedBondStereoCount": 0,
                "UndefinedBondStereoCount": 0,
                "CovalentUnitCount": 1,
                "ConformerCount3D": 0,
                "Morgan_128": [
                    1,
                    0,
                    0,
                    0,
                    0,
                    0,
                    0,
                    0,
                    0,
                    0,
                    0,
                    0,
                    1,
                    1,
                    0,
                    0,
                    0,
                    0,
                    0,
                    0,
                    0,
                    0,
                    0,
                    0,
                    0,
                    0,
                    1,
                    0,
                    0,
                    0,
                    0,
                    0,
                    0,
                    1,
                    1,
                    0,
                    0,
                    0,
                    1,
                    0,
                    0,
                    0,
                    0,
                    0,
                    1,
                    1,
                    0,
                    0,
                    0,
                    0,
                    1,
                    0,
                    0,
                    0,
                    0,
                    1,
                    0,
                    0,
                    0,
                    0,
                    0,
                    1,
                    0,
                    1,
                    1,
                    0,
                    0,
                    0,
                    0,
                    0,
                    0,
                    0,
                    0,
                    0,
                    0,
                    0,
                    0,
                    0,
                    1,
                    1,
                    1,
                    1,
                    0,
                    1,
                    0,
                    0,
                    1,
                    0,
                    0,
                    0,
                    1,
                    0,
                    0,
                    1,
                    1,
                    0,
                    0,
                    0,
                    0,
                    0,
                    1,
                    0,
                    0,
                    0,
                    0,
                    1,
                    0,
                    0,
                    0,
                    0,
                    1,
                    0,
                    0,
                    1,
                    0,
                    0,
                    0,
                    0,
                    0,
                    1,
                    1,
                    0,
                    1,
                    0,
                    0,
                    0,
                    0,
                    0
                ]
            }
        },
        {
            "substance_name": "yttrium",
            "substance_type": "inorganic solid",
            "substance_descriptors": {
                "Number of Elements": 1,
                "Element Types": [
                    "Y"
                ],
                "Number of Atoms in Unit Cell": 1,
                "Lattice Parameter a (\u00c5)": "4.97",
                "Lattice Parameter b (\u00c5)": "4.97",
                "Lattice Parameter c (\u00c5)": "4.97",
                "Lattice Angle alpha (degrees)": "90",
                "Lattice Angle beta (degrees)": "90",
                "Lattice Angle gamma (degrees)": "90",
                "Unit Cell Volume (\u00c5\u00b3)": 33.240491920843745,
                "Density (g/cm\u00b3)": 4.4413192658471425,
                "Space Group Number": 225,
                "Is Metallic (1/0)": 1,
                "Band Gap (eV)": 0.0,
                "Formation Energy per Atom (eV)": 0.09781800000000018,
                "Energy Above Hull (eV/atom)": 0.09781800000000018,
                "Energy per Atom (eV/atom)": -20.21578296,
                "Total Magnetization (\u03bcB)": 0.0001074,
                "Magnetic Ordering": "NM",
                "Bulk Modulus (GPa)": 39.59,
                "Shear Modulus (GPa)": 23.2,
                "Fermi Energy (eV)": 3.26088364,
                "Total Energy (eV)": -3.85474,
                "Crystal System": "cubic",
                "Magpie Descriptors": {
                    "MagpieData minimum Number": 39.0,
                    "MagpieData maximum Number": 39.0,
                    "MagpieData range Number": 0.0,
                    "MagpieData mean Number": 39.0,
                    "MagpieData avg_dev Number": 0.0,
                    "MagpieData mode Number": 39.0,
                    "MagpieData std_dev Number": 0,
                    "MagpieData minimum MendeleevNumber": 12.0,
                    "MagpieData maximum MendeleevNumber": 12.0,
                    "MagpieData range MendeleevNumber": 0.0,
                    "MagpieData mean MendeleevNumber": 12.0,
                    "MagpieData avg_dev MendeleevNumber": 0.0,
                    "MagpieData mode MendeleevNumber": 12.0,
                    "MagpieData std_dev MendeleevNumber": 0,
                    "MagpieData minimum AtomicWeight": 88.90585,
                    "MagpieData maximum AtomicWeight": 88.90585,
                    "MagpieData range AtomicWeight": 0.0,
                    "MagpieData mean AtomicWeight": 88.90585,
                    "MagpieData avg_dev AtomicWeight": 0.0,
                    "MagpieData mode AtomicWeight": 88.90585,
                    "MagpieData std_dev AtomicWeight": 0,
                    "MagpieData minimum MeltingT": 1799.0,
                    "MagpieData maximum MeltingT": 1799.0,
                    "MagpieData range MeltingT": 0.0,
                    "MagpieData mean MeltingT": 1799.0,
                    "MagpieData avg_dev MeltingT": 0.0,
                    "MagpieData mode MeltingT": 1799.0,
                    "MagpieData std_dev MeltingT": 0,
                    "MagpieData minimum Column": 3.0,
                    "MagpieData maximum Column": 3.0,
                    "MagpieData range Column": 0.0,
                    "MagpieData mean Column": 3.0,
                    "MagpieData avg_dev Column": 0.0,
                    "MagpieData mode Column": 3.0,
                    "MagpieData std_dev Column": 0,
                    "MagpieData minimum Row": 5.0,
                    "MagpieData maximum Row": 5.0,
                    "MagpieData range Row": 0.0,
                    "MagpieData mean Row": 5.0,
                    "MagpieData avg_dev Row": 0.0,
                    "MagpieData mode Row": 5.0,
                    "MagpieData std_dev Row": 0,
                    "MagpieData minimum CovalentRadius": 190.0,
                    "MagpieData maximum CovalentRadius": 190.0,
                    "MagpieData range CovalentRadius": 0.0,
                    "MagpieData mean CovalentRadius": 190.0,
                    "MagpieData avg_dev CovalentRadius": 0.0,
                    "MagpieData mode CovalentRadius": 190.0,
                    "MagpieData std_dev CovalentRadius": 0,
                    "MagpieData minimum Electronegativity": 1.22,
                    "MagpieData maximum Electronegativity": 1.22,
                    "MagpieData range Electronegativity": 0.0,
                    "MagpieData mean Electronegativity": 1.22,
                    "MagpieData avg_dev Electronegativity": 0.0,
                    "MagpieData mode Electronegativity": 1.22,
                    "MagpieData std_dev Electronegativity": 0,
                    "MagpieData minimum NsValence": 2.0,
                    "MagpieData maximum NsValence": 2.0,
                    "MagpieData range NsValence": 0.0,
                    "MagpieData mean NsValence": 2.0,
                    "MagpieData avg_dev NsValence": 0.0,
                    "MagpieData mode NsValence": 2.0,
                    "MagpieData std_dev NsValence": 0,
                    "MagpieData minimum NpValence": 0.0,
                    "MagpieData maximum NpValence": 0.0,
                    "MagpieData range NpValence": 0.0,
                    "MagpieData mean NpValence": 0.0,
                    "MagpieData avg_dev NpValence": 0.0,
                    "MagpieData mode NpValence": 0.0,
                    "MagpieData std_dev NpValence": 0,
                    "MagpieData minimum NdValence": 1.0,
                    "MagpieData maximum NdValence": 1.0,
                    "MagpieData range NdValence": 0.0,
                    "MagpieData mean NdValence": 1.0,
                    "MagpieData avg_dev NdValence": 0.0,
                    "MagpieData mode NdValence": 1.0,
                    "MagpieData std_dev NdValence": 0,
                    "MagpieData minimum NfValence": 0.0,
                    "MagpieData maximum NfValence": 0.0,
                    "MagpieData range NfValence": 0.0,
                    "MagpieData mean NfValence": 0.0,
                    "MagpieData avg_dev NfValence": 0.0,
                    "MagpieData mode NfValence": 0.0,
                    "MagpieData std_dev NfValence": 0,
                    "MagpieData minimum NValence": 3.0,
                    "MagpieData maximum NValence": 3.0,
                    "MagpieData range NValence": 0.0,
                    "MagpieData mean NValence": 3.0,
                    "MagpieData avg_dev NValence": 0.0,
                    "MagpieData mode NValence": 3.0,
                    "MagpieData std_dev NValence": 0,
                    "MagpieData minimum NsUnfilled": 0.0,
                    "MagpieData maximum NsUnfilled": 0.0,
                    "MagpieData range NsUnfilled": 0.0,
                    "MagpieData mean NsUnfilled": 0.0,
                    "MagpieData avg_dev NsUnfilled": 0.0,
                    "MagpieData mode NsUnfilled": 0.0,
                    "MagpieData std_dev NsUnfilled": 0,
                    "MagpieData minimum NpUnfilled": 0.0,
                    "MagpieData maximum NpUnfilled": 0.0,
                    "MagpieData range NpUnfilled": 0.0,
                    "MagpieData mean NpUnfilled": 0.0,
                    "MagpieData avg_dev NpUnfilled": 0.0,
                    "MagpieData mode NpUnfilled": 0.0,
                    "MagpieData std_dev NpUnfilled": 0,
                    "MagpieData minimum NdUnfilled": 9.0,
                    "MagpieData maximum NdUnfilled": 9.0,
                    "MagpieData range NdUnfilled": 0.0,
                    "MagpieData mean NdUnfilled": 9.0,
                    "MagpieData avg_dev NdUnfilled": 0.0,
                    "MagpieData mode NdUnfilled": 9.0,
                    "MagpieData std_dev NdUnfilled": 0,
                    "MagpieData minimum NfUnfilled": 0.0,
                    "MagpieData maximum NfUnfilled": 0.0,
                    "MagpieData range NfUnfilled": 0.0,
                    "MagpieData mean NfUnfilled": 0.0,
                    "MagpieData avg_dev NfUnfilled": 0.0,
                    "MagpieData mode NfUnfilled": 0.0,
                    "MagpieData std_dev NfUnfilled": 0,
                    "MagpieData minimum NUnfilled": 9.0,
                    "MagpieData maximum NUnfilled": 9.0,
                    "MagpieData range NUnfilled": 0.0,
                    "MagpieData mean NUnfilled": 9.0,
                    "MagpieData avg_dev NUnfilled": 0.0,
                    "MagpieData mode NUnfilled": 9.0,
                    "MagpieData std_dev NUnfilled": 0,
                    "MagpieData minimum GSvolume_pa": 32.365,
                    "MagpieData maximum GSvolume_pa": 32.365,
                    "MagpieData range GSvolume_pa": 0.0,
                    "MagpieData mean GSvolume_pa": 32.365,
                    "MagpieData avg_dev GSvolume_pa": 0.0,
                    "MagpieData mode GSvolume_pa": 32.365,
                    "MagpieData std_dev GSvolume_pa": 0,
                    "MagpieData minimum GSbandgap": 0.0,
                    "MagpieData maximum GSbandgap": 0.0,
                    "MagpieData range GSbandgap": 0.0,
                    "MagpieData mean GSbandgap": 0.0,
                    "MagpieData avg_dev GSbandgap": 0.0,
                    "MagpieData mode GSbandgap": 0.0,
                    "MagpieData std_dev GSbandgap": 0,
                    "MagpieData minimum GSmagmom": 0.0,
                    "MagpieData maximum GSmagmom": 0.0,
                    "MagpieData range GSmagmom": 0.0,
                    "MagpieData mean GSmagmom": 0.0,
                    "MagpieData avg_dev GSmagmom": 0.0,
                    "MagpieData mode GSmagmom": 0.0,
                    "MagpieData std_dev GSmagmom": 0,
                    "MagpieData minimum SpaceGroupNumber": 194.0,
                    "MagpieData maximum SpaceGroupNumber": 194.0,
                    "MagpieData range SpaceGroupNumber": 0.0,
                    "MagpieData mean SpaceGroupNumber": 194.0,
                    "MagpieData avg_dev SpaceGroupNumber": 0.0,
                    "MagpieData mode SpaceGroupNumber": 194.0,
                    "MagpieData std_dev SpaceGroupNumber": 0
                }
            }
        }
    ],
    "test_operating_temperature_celsius": 23.75,
    "min_pH_when_testing": -1.0,
    "max_pH_when_testing": -1.0,
    "test_medium_electrolyte": [
        {
            "substance_name": "argon",
            "substance_type": "small molecule",
            "substance_descriptors": {
                "CID": 23968,
                "MolecularFormula": "Ar",
                "MolecularWeight": "39.9",
                "CanonicalSMILES": "[Ar]",
                "IsomericSMILES": "[Ar]",
                "InChI": "InChI=1S/Ar",
                "InChIKey": "XKRFYHLGVUSROY-UHFFFAOYSA-N",
                "IUPACName": "argon",
                "ExactMass": "39.96238312",
                "MonoisotopicMass": "39.96238312",
                "TPSA": 0,
                "Complexity": 0,
                "Charge": 0,
                "HBondDonorCount": 0,
                "HBondAcceptorCount": 0,
                "RotatableBondCount": 0,
                "HeavyAtomCount": 1,
                "IsotopeAtomCount": 0,
                "AtomStereoCount": 0,
                "DefinedAtomStereoCount": 0,
                "UndefinedAtomStereoCount": 0,
                "BondStereoCount": 0,
                "DefinedBondStereoCount": 0,
                "UndefinedBondStereoCount": 0,
                "CovalentUnitCount": 1,
                "ConformerCount3D": 0,
                "Morgan_128": [
                    0,
                    0,
                    0,
                    0,
                    0,
                    0,
                    0,
                    0,
                    0,
                    0,
                    0,
                    0,
                    0,
                    0,
                    0,
                    0,
                    0,
                    0,
                    0,
                    0,
                    0,
                    0,
                    0,
                    0,
                    0,
                    0,
                    0,
                    0,
                    0,
                    0,
                    0,
                    0,
                    0,
                    0,
                    0,
                    0,
                    0,
                    0,
                    0,
                    0,
                    0,
                    1,
                    0,
                    0,
                    0,
                    0,
                    0,
                    0,
                    0,
                    0,
                    0,
                    0,
                    0,
                    0,
                    0,
                    0,
                    0,
                    0,
                    0,
                    0,
                    0,
                    0,
                    0,
                    0,
                    0,
                    0,
                    0,
                    0,
                    0,
                    0,
                    0,
                    0,
                    0,
                    0,
                    0,
                    0,
                    0,
                    0,
                    0,
                    0,
                    0,
                    0,
                    0,
                    0,
                    0,
                    0,
                    0,
                    0,
                    0,
                    0,
                    0,
                    0,
                    0,
                    0,
                    0,
                    0,
                    0,
                    0,
                    0,
                    0,
                    0,
                    0,
                    0,
                    0,
                    0,
                    0,
                    0,
                    0,
                    0,
                    0,
                    0,
                    0,
                    0,
                    0,
                    0,
                    0,
                    0,
                    0,
                    0,
                    0,
                    0,
                    0,
                    0,
                    0,
                    0,
                    0,
                    0,
                    0
                ]
            }
        }
    ],
    "LDL_ranking": 1.0,
    "UDL_ranking": 1.0,
    "LDL_category": "High Detection (Lower Sensitivity)",
    "UDL_category": "Low UDL Range"
}