{
    "DOI": "10.1149/1945-7111/abdc63",
    "sensor_type": "liquid",
    "detect_target": [
        {
            "substance_name": "uric acid",
            "substance_type": "small molecule",
            "substance_descriptors": {
                "CID": 1175,
                "MolecularFormula": "C5H4N4O3",
                "MolecularWeight": "168.11",
                "CanonicalSMILES": "C12=C(NC(=O)N1)NC(=O)NC2=O",
                "IsomericSMILES": "C12=C(NC(=O)N1)NC(=O)NC2=O",
                "InChI": "InChI=1S/C5H4N4O3/c10-3-1-2(7-4(11)6-1)8-5(12)9-3/h(H4,6,7,8,9,10,11,12)",
                "InChIKey": "LEHOTFFKMJEONL-UHFFFAOYSA-N",
                "IUPACName": "7,9-dihydro-3H-purine-2,6,8-trione",
                "XLogP": -1.9,
                "ExactMass": "168.02834000",
                "MonoisotopicMass": "168.02834000",
                "TPSA": 99.3,
                "Complexity": 332,
                "Charge": 0,
                "HBondDonorCount": 4,
                "HBondAcceptorCount": 3,
                "RotatableBondCount": 0,
                "HeavyAtomCount": 12,
                "IsotopeAtomCount": 0,
                "AtomStereoCount": 0,
                "DefinedAtomStereoCount": 0,
                "UndefinedAtomStereoCount": 0,
                "BondStereoCount": 0,
                "DefinedBondStereoCount": 0,
                "UndefinedBondStereoCount": 0,
                "CovalentUnitCount": 1,
                "Volume3D": 110.2,
                "XStericQuadrupole3D": 4.17,
                "YStericQuadrupole3D": 1.9,
                "ZStericQuadrupole3D": 0.56,
                "FeatureAcceptorCount3D": 3,
                "FeatureDonorCount3D": 4,
                "FeatureAnionCount3D": 0,
                "FeatureCationCount3D": 0,
                "FeatureRingCount3D": 2,
                "FeatureHydrophobeCount3D": 0,
                "ConformerModelRMSD3D": 0.4,
                "EffectiveRotorCount3D": 0,
                "ConformerCount3D": 1,
                "Morgan_128": [
                    1,
                    0,
                    0,
                    0,
                    0,
                    0,
                    0,
                    0,
                    0,
                    0,
                    1,
                    0,
                    0,
                    0,
                    0,
                    0,
                    0,
                    0,
                    0,
                    0,
                    0,
                    0,
                    0,
                    1,
                    1,
                    0,
                    0,
                    0,
                    0,
                    0,
                    0,
                    0,
                    0,
                    0,
                    0,
                    0,
                    0,
                    0,
                    0,
                    0,
                    0,
                    0,
                    0,
                    0,
                    0,
                    0,
                    0,
                    0,
                    0,
                    0,
                    1,
                    0,
                    0,
                    0,
                    0,
                    0,
                    0,
                    0,
                    1,
                    1,
                    0,
                    0,
                    0,
                    1,
                    1,
                    0,
                    0,
                    0,
                    0,
                    0,
                    0,
                    0,
                    0,
                    0,
                    0,
                    0,
                    0,
                    0,
                    0,
                    0,
                    0,
                    1,
                    0,
                    0,
                    1,
                    0,
                    0,
                    0,
                    0,
                    0,
                    1,
                    0,
                    0,
                    0,
                    0,
                    0,
                    0,
                    0,
                    0,
                    0,
                    1,
                    0,
                    0,
                    0,
                    0,
                    0,
                    0,
                    0,
                    0,
                    0,
                    1,
                    0,
                    1,
                    0,
                    0,
                    0,
                    0,
                    0,
                    0,
                    0,
                    0,
                    0,
                    1,
                    0,
                    0,
                    0,
                    0,
                    0
                ]
            }
        }
    ],
    "lower_detection_limit_log_ppm": 1.0,
    "upper_detection_limit_log_ppm": 2.477121255,
    "probe_material": [
        {
            "substance_name": "nickel(ii) oxide",
            "substance_type": "inorganic solid",
            "substance_descriptors": {
                "Number of Elements": 2,
                "Element Types": [
                    "O",
                    "Ni"
                ],
                "Number of Atoms in Unit Cell": 2,
                "Lattice Parameter a (\u00c5)": "4.19006",
                "Lattice Parameter b (\u00c5)": "4.19006",
                "Lattice Parameter c (\u00c5)": "4.19006",
                "Lattice Angle alpha (degrees)": "90",
                "Lattice Angle beta (degrees)": "90",
                "Lattice Angle gamma (degrees)": "90",
                "Unit Cell Volume (\u00c5\u00b3)": 18.34183362776642,
                "Density (g/cm\u00b3)": 6.762154477618838,
                "Space Group Number": 225,
                "Band Gap (eV)": 2.3008999999999995,
                "Is Metallic (1/0)": 0,
                "Formation Energy per Atom (eV)": -1.2159339412499994,
                "Energy Above Hull (eV/atom)": 0.0,
                "Energy per Atom (eV/atom)": -6.5821341425,
                "Total Magnetization (\u03bcB)": 2.0000001,
                "Magnetic Ordering": "FM",
                "Bulk Modulus (GPa)": 206.83,
                "Shear Modulus (GPa)": 51.98,
                "Fermi Energy (eV)": 5.87177732,
                "Total Energy (eV)": -2.92812,
                "Crystal System": "cubic",
                "Magpie Descriptors": {
                    "MagpieData minimum Number": 8.0,
                    "MagpieData maximum Number": 28.0,
                    "MagpieData range Number": 20.0,
                    "MagpieData mean Number": 18.0,
                    "MagpieData avg_dev Number": 10.0,
                    "MagpieData mode Number": 8.0,
                    "MagpieData std_dev Number": 14.142135623730951,
                    "MagpieData minimum MendeleevNumber": 61.0,
                    "MagpieData maximum MendeleevNumber": 87.0,
                    "MagpieData range MendeleevNumber": 26.0,
                    "MagpieData mean MendeleevNumber": 74.0,
                    "MagpieData avg_dev MendeleevNumber": 13.0,
                    "MagpieData mode MendeleevNumber": 61.0,
                    "MagpieData std_dev MendeleevNumber": 18.384776310850235,
                    "MagpieData minimum AtomicWeight": 15.9994,
                    "MagpieData maximum AtomicWeight": 58.6934,
                    "MagpieData range AtomicWeight": 42.693999999999996,
                    "MagpieData mean AtomicWeight": 37.346399999999996,
                    "MagpieData avg_dev AtomicWeight": 21.346999999999998,
                    "MagpieData mode AtomicWeight": 15.9994,
                    "MagpieData std_dev AtomicWeight": 30.18921691597846,
                    "MagpieData minimum MeltingT": 54.8,
                    "MagpieData maximum MeltingT": 1728.0,
                    "MagpieData range MeltingT": 1673.2,
                    "MagpieData mean MeltingT": 891.4,
                    "MagpieData avg_dev MeltingT": 836.6,
                    "MagpieData mode MeltingT": 54.8,
                    "MagpieData std_dev MeltingT": 1183.1310662813314,
                    "MagpieData minimum Column": 10.0,
                    "MagpieData maximum Column": 16.0,
                    "MagpieData range Column": 6.0,
                    "MagpieData mean Column": 13.0,
                    "MagpieData avg_dev Column": 3.0,
                    "MagpieData mode Column": 10.0,
                    "MagpieData std_dev Column": 4.242640687119285,
                    "MagpieData minimum Row": 2.0,
                    "MagpieData maximum Row": 4.0,
                    "MagpieData range Row": 2.0,
                    "MagpieData mean Row": 3.0,
                    "MagpieData avg_dev Row": 1.0,
                    "MagpieData mode Row": 2.0,
                    "MagpieData std_dev Row": 1.4142135623730951,
                    "MagpieData minimum CovalentRadius": 66.0,
                    "MagpieData maximum CovalentRadius": 124.0,
                    "MagpieData range CovalentRadius": 58.0,
                    "MagpieData mean CovalentRadius": 95.0,
                    "MagpieData avg_dev CovalentRadius": 29.0,
                    "MagpieData mode CovalentRadius": 66.0,
                    "MagpieData std_dev CovalentRadius": 41.012193308819754,
                    "MagpieData minimum Electronegativity": 1.91,
                    "MagpieData maximum Electronegativity": 3.44,
                    "MagpieData range Electronegativity": 1.53,
                    "MagpieData mean Electronegativity": 2.675,
                    "MagpieData avg_dev Electronegativity": 0.765,
                    "MagpieData mode Electronegativity": 1.91,
                    "MagpieData std_dev Electronegativity": 1.0818733752154177,
                    "MagpieData minimum NsValence": 2.0,
                    "MagpieData maximum NsValence": 2.0,
                    "MagpieData range NsValence": 0.0,
                    "MagpieData mean NsValence": 2.0,
                    "MagpieData avg_dev NsValence": 0.0,
                    "MagpieData mode NsValence": 2.0,
                    "MagpieData std_dev NsValence": 0.0,
                    "MagpieData minimum NpValence": 0.0,
                    "MagpieData maximum NpValence": 4.0,
                    "MagpieData range NpValence": 4.0,
                    "MagpieData mean NpValence": 2.0,
                    "MagpieData avg_dev NpValence": 2.0,
                    "MagpieData mode NpValence": 0.0,
                    "MagpieData std_dev NpValence": 2.8284271247461903,
                    "MagpieData minimum NdValence": 0.0,
                    "MagpieData maximum NdValence": 8.0,
                    "MagpieData range NdValence": 8.0,
                    "MagpieData mean NdValence": 4.0,
                    "MagpieData avg_dev NdValence": 4.0,
                    "MagpieData mode NdValence": 0.0,
                    "MagpieData std_dev NdValence": 5.656854249492381,
                    "MagpieData minimum NfValence": 0.0,
                    "MagpieData maximum NfValence": 0.0,
                    "MagpieData range NfValence": 0.0,
                    "MagpieData mean NfValence": 0.0,
                    "MagpieData avg_dev NfValence": 0.0,
                    "MagpieData mode NfValence": 0.0,
                    "MagpieData std_dev NfValence": 0.0,
                    "MagpieData minimum NValence": 6.0,
                    "MagpieData maximum NValence": 10.0,
                    "MagpieData range NValence": 4.0,
                    "MagpieData mean NValence": 8.0,
                    "MagpieData avg_dev NValence": 2.0,
                    "MagpieData mode NValence": 6.0,
                    "MagpieData std_dev NValence": 2.8284271247461903,
                    "MagpieData minimum NsUnfilled": 0.0,
                    "MagpieData maximum NsUnfilled": 0.0,
                    "MagpieData range NsUnfilled": 0.0,
                    "MagpieData mean NsUnfilled": 0.0,
                    "MagpieData avg_dev NsUnfilled": 0.0,
                    "MagpieData mode NsUnfilled": 0.0,
                    "MagpieData std_dev NsUnfilled": 0.0,
                    "MagpieData minimum NpUnfilled": 0.0,
                    "MagpieData maximum NpUnfilled": 2.0,
                    "MagpieData range NpUnfilled": 2.0,
                    "MagpieData mean NpUnfilled": 1.0,
                    "MagpieData avg_dev NpUnfilled": 1.0,
                    "MagpieData mode NpUnfilled": 0.0,
                    "MagpieData std_dev NpUnfilled": 1.4142135623730951,
                    "MagpieData minimum NdUnfilled": 0.0,
                    "MagpieData maximum NdUnfilled": 2.0,
                    "MagpieData range NdUnfilled": 2.0,
                    "MagpieData mean NdUnfilled": 1.0,
                    "MagpieData avg_dev NdUnfilled": 1.0,
                    "MagpieData mode NdUnfilled": 0.0,
                    "MagpieData std_dev NdUnfilled": 1.4142135623730951,
                    "MagpieData minimum NfUnfilled": 0.0,
                    "MagpieData maximum NfUnfilled": 0.0,
                    "MagpieData range NfUnfilled": 0.0,
                    "MagpieData mean NfUnfilled": 0.0,
                    "MagpieData avg_dev NfUnfilled": 0.0,
                    "MagpieData mode NfUnfilled": 0.0,
                    "MagpieData std_dev NfUnfilled": 0.0,
                    "MagpieData minimum NUnfilled": 2.0,
                    "MagpieData maximum NUnfilled": 2.0,
                    "MagpieData range NUnfilled": 0.0,
                    "MagpieData mean NUnfilled": 2.0,
                    "MagpieData avg_dev NUnfilled": 0.0,
                    "MagpieData mode NUnfilled": 2.0,
                    "MagpieData std_dev NUnfilled": 0.0,
                    "MagpieData minimum GSvolume_pa": 9.105,
                    "MagpieData maximum GSvolume_pa": 10.32,
                    "MagpieData range GSvolume_pa": 1.2149999999999999,
                    "MagpieData mean GSvolume_pa": 9.7125,
                    "MagpieData avg_dev GSvolume_pa": 0.6074999999999999,
                    "MagpieData mode GSvolume_pa": 9.105,
                    "MagpieData std_dev GSvolume_pa": 0.8591347391416552,
                    "MagpieData minimum GSbandgap": 0.0,
                    "MagpieData maximum GSbandgap": 0.0,
                    "MagpieData range GSbandgap": 0.0,
                    "MagpieData mean GSbandgap": 0.0,
                    "MagpieData avg_dev GSbandgap": 0.0,
                    "MagpieData mode GSbandgap": 0.0,
                    "MagpieData std_dev GSbandgap": 0.0,
                    "MagpieData minimum GSmagmom": 0.0,
                    "MagpieData maximum GSmagmom": 0.5953947,
                    "MagpieData range GSmagmom": 0.5953947,
                    "MagpieData mean GSmagmom": 0.29769735,
                    "MagpieData avg_dev GSmagmom": 0.29769735,
                    "MagpieData mode GSmagmom": 0.0,
                    "MagpieData std_dev GSmagmom": 0.42100762985253015,
                    "MagpieData minimum SpaceGroupNumber": 12.0,
                    "MagpieData maximum SpaceGroupNumber": 225.0,
                    "MagpieData range SpaceGroupNumber": 213.0,
                    "MagpieData mean SpaceGroupNumber": 118.5,
                    "MagpieData avg_dev SpaceGroupNumber": 106.5,
                    "MagpieData mode SpaceGroupNumber": 12.0,
                    "MagpieData std_dev SpaceGroupNumber": 150.61374439273462
                }
            }
        }
    ],
    "test_operating_temperature_celsius": 26.25,
    "min_pH_when_testing": 7.9,
    "max_pH_when_testing": 7.9,
    "test_medium_electrolyte": [
        {
            "substance_name": "sodium chloride",
            "substance_type": "small molecule",
            "substance_descriptors": {
                "CID": 5234,
                "MolecularFormula": "ClNa",
                "MolecularWeight": "58.44",
                "CanonicalSMILES": "[Na+].[Cl-]",
                "IsomericSMILES": "[Na+].[Cl-]",
                "InChI": "InChI=1S/ClH.Na/h1H;/q;+1/p-1",
                "InChIKey": "FAPWRFPIFSIZLT-UHFFFAOYSA-M",
                "IUPACName": "sodium;chloride",
                "ExactMass": "57.9586220",
                "MonoisotopicMass": "57.9586220",
                "TPSA": 0,
                "Complexity": 2,
                "Charge": 0,
                "HBondDonorCount": 0,
                "HBondAcceptorCount": 1,
                "RotatableBondCount": 0,
                "HeavyAtomCount": 2,
                "IsotopeAtomCount": 0,
                "AtomStereoCount": 0,
                "DefinedAtomStereoCount": 0,
                "UndefinedAtomStereoCount": 0,
                "BondStereoCount": 0,
                "DefinedBondStereoCount": 0,
                "UndefinedBondStereoCount": 0,
                "CovalentUnitCount": 2,
                "ConformerCount3D": 0,
                "Morgan_128": [
                    0,
                    0,
                    0,
                    0,
                    0,
                    0,
                    0,
                    0,
                    0,
                    0,
                    0,
                    0,
                    0,
                    0,
                    0,
                    0,
                    0,
                    0,
                    0,
                    0,
                    0,
                    0,
                    0,
                    0,
                    0,
                    0,
                    0,
                    0,
                    0,
                    0,
                    0,
                    0,
                    0,
                    0,
                    0,
                    0,
                    0,
                    0,
                    0,
                    0,
                    0,
                    0,
                    0,
                    0,
                    0,
                    0,
                    0,
                    0,
                    0,
                    0,
                    0,
                    0,
                    0,
                    0,
                    0,
                    0,
                    0,
                    0,
                    0,
                    0,
                    0,
                    1,
                    0,
                    0,
                    0,
                    0,
                    0,
                    0,
                    0,
                    0,
                    0,
                    0,
                    0,
                    0,
                    1,
                    0,
                    0,
                    0,
                    0,
                    0,
                    0,
                    0,
                    0,
                    0,
                    0,
                    0,
                    0,
                    0,
                    0,
                    0,
                    0,
                    0,
                    0,
                    0,
                    0,
                    0,
                    0,
                    0,
                    0,
                    0,
                    0,
                    0,
                    0,
                    0,
                    0,
                    0,
                    0,
                    0,
                    0,
                    0,
                    0,
                    0,
                    0,
                    0,
                    0,
                    0,
                    0,
                    0,
                    0,
                    0,
                    0,
                    0,
                    0,
                    0,
                    0,
                    0,
                    0,
                    0
                ]
            }
        },
        {
            "substance_name": "potassium chloride",
            "substance_type": "small molecule",
            "substance_descriptors": {
                "CID": 4873,
                "MolecularFormula": "ClK",
                "MolecularWeight": "74.55",
                "CanonicalSMILES": "[Cl-].[K+]",
                "IsomericSMILES": "[Cl-].[K+]",
                "InChI": "InChI=1S/ClH.K/h1H;/q;+1/p-1",
                "InChIKey": "WCUXLLCKKVVCTQ-UHFFFAOYSA-M",
                "IUPACName": "potassium;chloride",
                "ExactMass": "73.9325592",
                "MonoisotopicMass": "73.9325592",
                "TPSA": 0,
                "Complexity": 2,
                "Charge": 0,
                "HBondDonorCount": 0,
                "HBondAcceptorCount": 1,
                "RotatableBondCount": 0,
                "HeavyAtomCount": 2,
                "IsotopeAtomCount": 0,
                "AtomStereoCount": 0,
                "DefinedAtomStereoCount": 0,
                "UndefinedAtomStereoCount": 0,
                "BondStereoCount": 0,
                "DefinedBondStereoCount": 0,
                "UndefinedBondStereoCount": 0,
                "CovalentUnitCount": 2,
                "ConformerCount3D": 0,
                "Morgan_128": [
                    0,
                    0,
                    0,
                    0,
                    0,
                    0,
                    0,
                    0,
                    0,
                    0,
                    0,
                    0,
                    0,
                    0,
                    0,
                    0,
                    0,
                    0,
                    0,
                    0,
                    0,
                    0,
                    0,
                    0,
                    0,
                    0,
                    0,
                    0,
                    0,
                    0,
                    0,
                    0,
                    0,
                    0,
                    0,
                    0,
                    0,
                    0,
                    0,
                    0,
                    0,
                    0,
                    0,
                    0,
                    0,
                    0,
                    0,
                    0,
                    0,
                    0,
                    0,
                    0,
                    0,
                    0,
                    0,
                    0,
                    0,
                    0,
                    0,
                    0,
                    0,
                    0,
                    0,
                    0,
                    0,
                    0,
                    0,
                    0,
                    0,
                    0,
                    0,
                    0,
                    0,
                    0,
                    1,
                    0,
                    0,
                    0,
                    0,
                    0,
                    0,
                    0,
                    0,
                    1,
                    0,
                    0,
                    0,
                    0,
                    0,
                    0,
                    0,
                    0,
                    0,
                    0,
                    0,
                    0,
                    0,
                    0,
                    0,
                    0,
                    0,
                    0,
                    0,
                    0,
                    0,
                    0,
                    0,
                    0,
                    0,
                    0,
                    0,
                    0,
                    0,
                    0,
                    0,
                    0,
                    0,
                    0,
                    0,
                    0,
                    0,
                    0,
                    0,
                    0,
                    0,
                    0,
                    0,
                    0
                ]
            }
        },
        {
            "substance_name": "disodium phosphate",
            "substance_type": "small molecule",
            "substance_descriptors": {
                "CID": 24203,
                "MolecularFormula": "HNa2O4P",
                "MolecularWeight": "141.959",
                "CanonicalSMILES": "OP(=O)([O-])[O-].[Na+].[Na+]",
                "IsomericSMILES": "OP(=O)([O-])[O-].[Na+].[Na+]",
                "InChI": "InChI=1S/2Na.H3O4P/c;;1-5(2,3)4/h;;(H3,1,2,3,4)/q2*+1;/p-2",
                "InChIKey": "BNIILDVGGAEEIG-UHFFFAOYSA-L",
                "IUPACName": "disodium;hydrogen phosphate",
                "ExactMass": "141.94078407",
                "MonoisotopicMass": "141.94078407",
                "TPSA": 83.4,
                "Complexity": 46,
                "Charge": 0,
                "HBondDonorCount": 1,
                "HBondAcceptorCount": 4,
                "RotatableBondCount": 0,
                "HeavyAtomCount": 7,
                "IsotopeAtomCount": 0,
                "AtomStereoCount": 0,
                "DefinedAtomStereoCount": 0,
                "UndefinedAtomStereoCount": 0,
                "BondStereoCount": 0,
                "DefinedBondStereoCount": 0,
                "UndefinedBondStereoCount": 0,
                "CovalentUnitCount": 3,
                "ConformerCount3D": 0,
                "Morgan_128": [
                    0,
                    0,
                    0,
                    0,
                    0,
                    0,
                    0,
                    0,
                    0,
                    0,
                    1,
                    0,
                    0,
                    0,
                    0,
                    0,
                    0,
                    0,
                    0,
                    0,
                    0,
                    0,
                    0,
                    0,
                    0,
                    0,
                    0,
                    0,
                    0,
                    0,
                    0,
                    0,
                    0,
                    0,
                    0,
                    0,
                    0,
                    0,
                    0,
                    1,
                    0,
                    0,
                    0,
                    0,
                    0,
                    0,
                    1,
                    0,
                    0,
                    0,
                    0,
                    1,
                    0,
                    0,
                    0,
                    0,
                    0,
                    0,
                    0,
                    0,
                    0,
                    1,
                    0,
                    0,
                    1,
                    0,
                    0,
                    0,
                    0,
                    0,
                    0,
                    0,
                    0,
                    0,
                    0,
                    1,
                    0,
                    0,
                    0,
                    0,
                    1,
                    0,
                    0,
                    0,
                    0,
                    0,
                    0,
                    0,
                    0,
                    0,
                    0,
                    0,
                    0,
                    0,
                    0,
                    0,
                    0,
                    0,
                    0,
                    0,
                    0,
                    0,
                    1,
                    0,
                    0,
                    0,
                    0,
                    0,
                    0,
                    0,
                    0,
                    0,
                    0,
                    0,
                    0,
                    0,
                    0,
                    0,
                    0,
                    0,
                    0,
                    0,
                    0,
                    0,
                    0,
                    0,
                    0,
                    0
                ]
            }
        },
        {
            "substance_name": "monopotassium phosphate",
            "substance_type": "small molecule",
            "substance_descriptors": {
                "CID": 516951,
                "MolecularFormula": "H2KO4P",
                "MolecularWeight": "136.086",
                "CanonicalSMILES": "OP(=O)(O)[O-].[K+]",
                "IsomericSMILES": "OP(=O)(O)[O-].[K+]",
                "InChI": "InChI=1S/K.H3O4P/c;1-5(2,3)4/h;(H3,1,2,3,4)/q+1;/p-1",
                "InChIKey": "GNSKLFRGEWLPPA-UHFFFAOYSA-M",
                "IUPACName": "potassium;dihydrogen phosphate",
                "ExactMass": "135.93277702",
                "MonoisotopicMass": "135.93277702",
                "TPSA": 80.6,
                "Complexity": 61,
                "Charge": 0,
                "HBondDonorCount": 2,
                "HBondAcceptorCount": 4,
                "RotatableBondCount": 0,
                "HeavyAtomCount": 6,
                "IsotopeAtomCount": 0,
                "AtomStereoCount": 0,
                "DefinedAtomStereoCount": 0,
                "UndefinedAtomStereoCount": 0,
                "BondStereoCount": 0,
                "DefinedBondStereoCount": 0,
                "UndefinedBondStereoCount": 0,
                "CovalentUnitCount": 2,
                "ConformerCount3D": 0,
                "Morgan_128": [
                    1,
                    0,
                    0,
                    0,
                    0,
                    0,
                    0,
                    0,
                    0,
                    0,
                    1,
                    0,
                    0,
                    0,
                    0,
                    0,
                    0,
                    0,
                    0,
                    0,
                    0,
                    0,
                    0,
                    0,
                    0,
                    0,
                    0,
                    0,
                    0,
                    0,
                    0,
                    0,
                    0,
                    0,
                    0,
                    0,
                    0,
                    0,
                    0,
                    1,
                    0,
                    0,
                    0,
                    0,
                    0,
                    0,
                    1,
                    0,
                    0,
                    0,
                    0,
                    1,
                    0,
                    0,
                    0,
                    0,
                    0,
                    0,
                    0,
                    0,
                    0,
                    0,
                    0,
                    0,
                    1,
                    0,
                    0,
                    0,
                    0,
                    0,
                    0,
                    0,
                    0,
                    0,
                    0,
                    1,
                    0,
                    0,
                    0,
                    0,
                    0,
                    0,
                    0,
                    1,
                    0,
                    0,
                    0,
                    0,
                    0,
                    0,
                    0,
                    0,
                    0,
                    0,
                    0,
                    0,
                    0,
                    0,
                    0,
                    0,
                    0,
                    0,
                    1,
                    0,
                    0,
                    0,
                    0,
                    0,
                    0,
                    0,
                    0,
                    0,
                    0,
                    0,
                    0,
                    0,
                    0,
                    0,
                    0,
                    0,
                    0,
                    0,
                    0,
                    0,
                    0,
                    0,
                    0,
                    0
                ]
            }
        },
        {
            "substance_name": "water",
            "substance_type": "small molecule",
            "substance_descriptors": {
                "CID": 962,
                "MolecularFormula": "H2O",
                "MolecularWeight": "18.015",
                "CanonicalSMILES": "O",
                "IsomericSMILES": "O",
                "InChI": "InChI=1S/H2O/h1H2",
                "InChIKey": "XLYOFNOQVPJJNP-UHFFFAOYSA-N",
                "IUPACName": "oxidane",
                "XLogP": -0.5,
                "ExactMass": "18.010564683",
                "MonoisotopicMass": "18.010564683",
                "TPSA": 1,
                "Complexity": 0,
                "Charge": 0,
                "HBondDonorCount": 1,
                "HBondAcceptorCount": 1,
                "RotatableBondCount": 0,
                "HeavyAtomCount": 1,
                "IsotopeAtomCount": 0,
                "AtomStereoCount": 0,
                "DefinedAtomStereoCount": 0,
                "UndefinedAtomStereoCount": 0,
                "BondStereoCount": 0,
                "DefinedBondStereoCount": 0,
                "UndefinedBondStereoCount": 0,
                "CovalentUnitCount": 1,
                "Volume3D": 14.7,
                "XStericQuadrupole3D": 0.49,
                "YStericQuadrupole3D": 0.49,
                "ZStericQuadrupole3D": 0.49,
                "FeatureAcceptorCount3D": 1,
                "FeatureDonorCount3D": 1,
                "FeatureAnionCount3D": 0,
                "FeatureCationCount3D": 0,
                "FeatureRingCount3D": 0,
                "FeatureHydrophobeCount3D": 0,
                "ConformerModelRMSD3D": 0.4,
                "EffectiveRotorCount3D": 0,
                "ConformerCount3D": 1,
                "Morgan_128": [
                    0,
                    0,
                    0,
                    0,
                    0,
                    0,
                    0,
                    0,
                    0,
                    0,
                    0,
                    0,
                    0,
                    0,
                    0,
                    0,
                    0,
                    0,
                    0,
                    0,
                    0,
                    0,
                    1,
                    0,
                    0,
                    0,
                    0,
                    0,
                    0,
                    0,
                    0,
                    0,
                    0,
                    0,
                    0,
                    0,
                    0,
                    0,
                    0,
                    0,
                    0,
                    0,
                    0,
                    0,
                    0,
                    0,
                    0,
                    0,
                    0,
                    0,
                    0,
                    0,
                    0,
                    0,
                    0,
                    0,
                    0,
                    0,
                    0,
                    0,
                    0,
                    0,
                    0,
                    0,
                    0,
                    0,
                    0,
                    0,
                    0,
                    0,
                    0,
                    0,
                    0,
                    0,
                    0,
                    0,
                    0,
                    0,
                    0,
                    0,
                    0,
                    0,
                    0,
                    0,
                    0,
                    0,
                    0,
                    0,
                    0,
                    0,
                    0,
                    0,
                    0,
                    0,
                    0,
                    0,
                    0,
                    0,
                    0,
                    0,
                    0,
                    0,
                    0,
                    0,
                    0,
                    0,
                    0,
                    0,
                    0,
                    0,
                    0,
                    0,
                    0,
                    0,
                    0,
                    0,
                    0,
                    0,
                    0,
                    0,
                    0,
                    0,
                    0,
                    0,
                    0,
                    0,
                    0,
                    0
                ]
            }
        }
    ],
    "LDL_ranking": 1.0,
    "UDL_ranking": 1.0,
    "LDL_category": "Very High Detection (Low Sensitivity)",
    "UDL_category": "Moderate UDL Range"
}