{
    "DOI": "10.1016/j.ceramint.2018.04.047",
    "sensor_type": "liquid",
    "detect_target": [
        {
            "substance_name": "h+",
            "substance_type": "small molecule",
            "substance_descriptors": {
                "CID": 1038,
                "MolecularFormula": "H+",
                "MolecularWeight": "1.0080",
                "CanonicalSMILES": "[H+]",
                "IsomericSMILES": "[H+]",
                "InChI": "InChI=1S/p+1",
                "InChIKey": "GPRLSGONYQIRFK-UHFFFAOYSA-N",
                "IUPACName": "hydron",
                "XLogP": 0,
                "ExactMass": "1.0078250319",
                "MonoisotopicMass": "1.0078250319",
                "TPSA": 0,
                "Complexity": 0,
                "Charge": 1,
                "HBondDonorCount": 1,
                "HBondAcceptorCount": 0,
                "RotatableBondCount": 0,
                "HeavyAtomCount": 0,
                "IsotopeAtomCount": 0,
                "AtomStereoCount": 0,
                "DefinedAtomStereoCount": 0,
                "UndefinedAtomStereoCount": 0,
                "BondStereoCount": 0,
                "DefinedBondStereoCount": 0,
                "UndefinedBondStereoCount": 0,
                "CovalentUnitCount": 1,
                "ConformerCount3D": 0,
                "Morgan_128": [
                    0,
                    0,
                    0,
                    0,
                    0,
                    0,
                    0,
                    0,
                    0,
                    0,
                    0,
                    0,
                    0,
                    0,
                    0,
                    0,
                    0,
                    0,
                    0,
                    0,
                    0,
                    0,
                    0,
                    0,
                    0,
                    0,
                    0,
                    0,
                    0,
                    0,
                    0,
                    0,
                    0,
                    0,
                    0,
                    0,
                    0,
                    0,
                    0,
                    0,
                    1,
                    0,
                    0,
                    0,
                    0,
                    0,
                    0,
                    0,
                    0,
                    0,
                    0,
                    0,
                    0,
                    0,
                    0,
                    0,
                    0,
                    0,
                    0,
                    0,
                    0,
                    0,
                    0,
                    0,
                    0,
                    0,
                    0,
                    0,
                    0,
                    0,
                    0,
                    0,
                    0,
                    0,
                    0,
                    0,
                    0,
                    0,
                    0,
                    0,
                    0,
                    0,
                    0,
                    0,
                    0,
                    0,
                    0,
                    0,
                    0,
                    0,
                    0,
                    0,
                    0,
                    0,
                    0,
                    0,
                    0,
                    0,
                    0,
                    0,
                    0,
                    0,
                    0,
                    0,
                    0,
                    0,
                    0,
                    0,
                    0,
                    0,
                    0,
                    0,
                    0,
                    0,
                    0,
                    0,
                    0,
                    0,
                    0,
                    0,
                    0,
                    0,
                    0,
                    0,
                    0,
                    0,
                    0,
                    0
                ]
            }
        }
    ],
    "lower_detection_limit_log_ppm": -9.0,
    "upper_detection_limit_log_ppm": 1.0,
    "probe_material": [
        {
            "substance_name": "cerium titanate",
            "substance_type": "inorganic solid",
            "substance_descriptors": {
                "Number of Elements": 3,
                "Element Types": [
                    "O",
                    "Ce",
                    "Ti"
                ],
                "Number of Atoms in Unit Cell": 18,
                "Lattice Parameter a (\u00c5)": 3.9279570605034704,
                "Lattice Parameter b (\u00c5)": 3.9279570605034704,
                "Lattice Parameter c (\u00c5)": 3.9279570605034704,
                "Lattice Angle alpha (degrees)": 90.0,
                "Lattice Angle beta (degrees)": 90.0,
                "Lattice Angle gamma (degrees)": 90.0,
                "Unit Cell Volume (\u00c5\u00b3)": 218.38106499912908,
                "Density (g/cm\u00b3)": 5.046627200144553,
                "Space Group Number": 221,
                "Band Gap (eV)": 1.4954,
                "Is Metallic (1/0)": 0,
                "Formation Energy per Atom (eV)": -3.418785088703705,
                "Energy Above Hull (eV/atom)": 0.049280863888890636,
                "Energy per Atom (eV/atom)": -13.694345748333335,
                "Total Magnetization (\u03bcB)": 0.002493,
                "Magnetic Ordering": "NM",
                "Bulk Modulus (GPa)": -99999,
                "Shear Modulus (GPa)": -99999,
                "Fermi Energy (eV)": 3.18863848,
                "Total Energy (eV)": -6.87727,
                "Crystal System": "cubic",
                "Magpie Descriptors": {
                    "MagpieData minimum Number": 8.0,
                    "MagpieData maximum Number": 58.0,
                    "MagpieData range Number": 50.0,
                    "MagpieData mean Number": 26.4,
                    "MagpieData avg_dev Number": 12.639999999999999,
                    "MagpieData mode Number": 22.0,
                    "MagpieData std_dev Number": 22.32231426814241,
                    "MagpieData minimum MendeleevNumber": 15.0,
                    "MagpieData maximum MendeleevNumber": 87.0,
                    "MagpieData range MendeleevNumber": 72.0,
                    "MagpieData mean MendeleevNumber": 46.2,
                    "MagpieData avg_dev MendeleevNumber": 16.320000000000004,
                    "MagpieData mode MendeleevNumber": 43.0,
                    "MagpieData std_dev MendeleevNumber": 30.873011792548798,
                    "MagpieData minimum AtomicWeight": 15.9994,
                    "MagpieData maximum AtomicWeight": 140.116,
                    "MagpieData range AtomicWeight": 124.11660000000002,
                    "MagpieData mean AtomicWeight": 59.94328,
                    "MagpieData avg_dev AtomicWeight": 32.06908800000001,
                    "MagpieData mode AtomicWeight": 47.867,
                    "MagpieData std_dev AtomicWeight": 56.04921064044652,
                    "MagpieData minimum MeltingT": 54.8,
                    "MagpieData maximum MeltingT": 1941.0,
                    "MagpieData range MeltingT": 1886.2,
                    "MagpieData mean MeltingT": 1389.76,
                    "MagpieData avg_dev MeltingT": 661.488,
                    "MagpieData mode MeltingT": 1941.0,
                    "MagpieData std_dev MeltingT": 999.1644280526175,
                    "MagpieData minimum Column": 3.0,
                    "MagpieData maximum Column": 16.0,
                    "MagpieData range Column": 13.0,
                    "MagpieData mean Column": 6.2,
                    "MagpieData avg_dev Column": 3.920000000000001,
                    "MagpieData mode Column": 4.0,
                    "MagpieData std_dev Column": 6.568322247184372,
                    "MagpieData minimum Row": 2.0,
                    "MagpieData maximum Row": 6.0,
                    "MagpieData range Row": 4.0,
                    "MagpieData mean Row": 4.0,
                    "MagpieData avg_dev Row": 0.8,
                    "MagpieData mode Row": 4.0,
                    "MagpieData std_dev Row": 1.6903085094570331,
                    "MagpieData minimum CovalentRadius": 66.0,
                    "MagpieData maximum CovalentRadius": 204.0,
                    "MagpieData range CovalentRadius": 138.0,
                    "MagpieData mean CovalentRadius": 150.0,
                    "MagpieData avg_dev CovalentRadius": 33.6,
                    "MagpieData mode CovalentRadius": 160.0,
                    "MagpieData std_dev CovalentRadius": 60.56873309366334,
                    "MagpieData minimum Electronegativity": 1.12,
                    "MagpieData maximum Electronegativity": 3.44,
                    "MagpieData range Electronegativity": 2.32,
                    "MagpieData mean Electronegativity": 1.836,
                    "MagpieData avg_dev Electronegativity": 0.6416,
                    "MagpieData mode Electronegativity": 1.54,
                    "MagpieData std_dev Electronegativity": 1.0935394695339402,
                    "MagpieData minimum NsValence": 2.0,
                    "MagpieData maximum NsValence": 2.0,
                    "MagpieData range NsValence": 0.0,
                    "MagpieData mean NsValence": 2.0,
                    "MagpieData avg_dev NsValence": 0.0,
                    "MagpieData mode NsValence": 2.0,
                    "MagpieData std_dev NsValence": 0.0,
                    "MagpieData minimum NpValence": 0.0,
                    "MagpieData maximum NpValence": 4.0,
                    "MagpieData range NpValence": 4.0,
                    "MagpieData mean NpValence": 0.8,
                    "MagpieData avg_dev NpValence": 1.2800000000000002,
                    "MagpieData mode NpValence": 0.0,
                    "MagpieData std_dev NpValence": 2.138089935299395,
                    "MagpieData minimum NdValence": 0.0,
                    "MagpieData maximum NdValence": 2.0,
                    "MagpieData range NdValence": 2.0,
                    "MagpieData mean NdValence": 1.4,
                    "MagpieData avg_dev NdValence": 0.72,
                    "MagpieData mode NdValence": 2.0,
                    "MagpieData std_dev NdValence": 1.0690449676496976,
                    "MagpieData minimum NfValence": 0.0,
                    "MagpieData maximum NfValence": 1.0,
                    "MagpieData range NfValence": 1.0,
                    "MagpieData mean NfValence": 0.2,
                    "MagpieData avg_dev NfValence": 0.32000000000000006,
                    "MagpieData mode NfValence": 0.0,
                    "MagpieData std_dev NfValence": 0.5345224838248488,
                    "MagpieData minimum NValence": 4.0,
                    "MagpieData maximum NValence": 6.0,
                    "MagpieData range NValence": 2.0,
                    "MagpieData mean NValence": 4.4,
                    "MagpieData avg_dev NValence": 0.6400000000000002,
                    "MagpieData mode NValence": 4.0,
                    "MagpieData std_dev NValence": 1.0690449676496976,
                    "MagpieData minimum NsUnfilled": 0.0,
                    "MagpieData maximum NsUnfilled": 0.0,
                    "MagpieData range NsUnfilled": 0.0,
                    "MagpieData mean NsUnfilled": 0.0,
                    "MagpieData avg_dev NsUnfilled": 0.0,
                    "MagpieData mode NsUnfilled": 0.0,
                    "MagpieData std_dev NsUnfilled": 0.0,
                    "MagpieData minimum NpUnfilled": 0.0,
                    "MagpieData maximum NpUnfilled": 2.0,
                    "MagpieData range NpUnfilled": 2.0,
                    "MagpieData mean NpUnfilled": 0.4,
                    "MagpieData avg_dev NpUnfilled": 0.6400000000000001,
                    "MagpieData mode NpUnfilled": 0.0,
                    "MagpieData std_dev NpUnfilled": 1.0690449676496976,
                    "MagpieData minimum NdUnfilled": 0.0,
                    "MagpieData maximum NdUnfilled": 9.0,
                    "MagpieData range NdUnfilled": 9.0,
                    "MagpieData mean NdUnfilled": 6.6,
                    "MagpieData avg_dev NdUnfilled": 2.6400000000000006,
                    "MagpieData mode NdUnfilled": 8.0,
                    "MagpieData std_dev NdUnfilled": 4.44007721940573,
                    "MagpieData minimum NfUnfilled": 0.0,
                    "MagpieData maximum NfUnfilled": 13.0,
                    "MagpieData range NfUnfilled": 13.0,
                    "MagpieData mean NfUnfilled": 2.6,
                    "MagpieData avg_dev NfUnfilled": 4.16,
                    "MagpieData mode NfUnfilled": 0.0,
                    "MagpieData std_dev NfUnfilled": 6.948792289723034,
                    "MagpieData minimum NUnfilled": 2.0,
                    "MagpieData maximum NUnfilled": 22.0,
                    "MagpieData range NUnfilled": 20.0,
                    "MagpieData mean NUnfilled": 9.600000000000001,
                    "MagpieData avg_dev NUnfilled": 4.960000000000001,
                    "MagpieData mode NUnfilled": 8.0,
                    "MagpieData std_dev NUnfilled": 8.847921466972585,
                    "MagpieData minimum GSvolume_pa": 9.105,
                    "MagpieData maximum GSvolume_pa": 37.24,
                    "MagpieData range GSvolume_pa": 28.135,
                    "MagpieData mean GSvolume_pa": 19.283,
                    "MagpieData avg_dev GSvolume_pa": 7.1828,
                    "MagpieData mode GSvolume_pa": 16.69,
                    "MagpieData std_dev GSvolume_pa": 12.623907024825103,
                    "MagpieData minimum GSbandgap": 0.0,
                    "MagpieData maximum GSbandgap": 0.0,
                    "MagpieData range GSbandgap": 0.0,
                    "MagpieData mean GSbandgap": 0.0,
                    "MagpieData avg_dev GSbandgap": 0.0,
                    "MagpieData mode GSbandgap": 0.0,
                    "MagpieData std_dev GSbandgap": 0.0,
                    "MagpieData minimum GSmagmom": 0.0,
                    "MagpieData maximum GSmagmom": 2.25333333333e-05,
                    "MagpieData range GSmagmom": 2.25333333333e-05,
                    "MagpieData mean GSmagmom": 1.3519999999980001e-05,
                    "MagpieData avg_dev GSmagmom": 1.0815999999984e-05,
                    "MagpieData mode GSmagmom": 2.25333333333e-05,
                    "MagpieData std_dev GSmagmom": 1.4751529379931264e-05,
                    "MagpieData minimum SpaceGroupNumber": 12.0,
                    "MagpieData maximum SpaceGroupNumber": 194.0,
                    "MagpieData range SpaceGroupNumber": 182.0,
                    "MagpieData mean SpaceGroupNumber": 157.6,
                    "MagpieData avg_dev SpaceGroupNumber": 58.24000000000001,
                    "MagpieData mode SpaceGroupNumber": 194.0,
                    "MagpieData std_dev SpaceGroupNumber": 97.28309205612247
                }
            }
        }
    ],
    "test_operating_temperature_celsius": 22.5,
    "min_pH_when_testing": 2.0,
    "max_pH_when_testing": 12.0,
    "test_medium_electrolyte": [
        {
            "substance_name": "water",
            "substance_type": "small molecule",
            "substance_descriptors": {
                "CID": 962,
                "MolecularFormula": "H2O",
                "MolecularWeight": "18.015",
                "CanonicalSMILES": "O",
                "IsomericSMILES": "O",
                "InChI": "InChI=1S/H2O/h1H2",
                "InChIKey": "XLYOFNOQVPJJNP-UHFFFAOYSA-N",
                "IUPACName": "oxidane",
                "XLogP": -0.5,
                "ExactMass": "18.010564683",
                "MonoisotopicMass": "18.010564683",
                "TPSA": 1,
                "Complexity": 0,
                "Charge": 0,
                "HBondDonorCount": 1,
                "HBondAcceptorCount": 1,
                "RotatableBondCount": 0,
                "HeavyAtomCount": 1,
                "IsotopeAtomCount": 0,
                "AtomStereoCount": 0,
                "DefinedAtomStereoCount": 0,
                "UndefinedAtomStereoCount": 0,
                "BondStereoCount": 0,
                "DefinedBondStereoCount": 0,
                "UndefinedBondStereoCount": 0,
                "CovalentUnitCount": 1,
                "Volume3D": 14.7,
                "XStericQuadrupole3D": 0.49,
                "YStericQuadrupole3D": 0.49,
                "ZStericQuadrupole3D": 0.49,
                "FeatureAcceptorCount3D": 1,
                "FeatureDonorCount3D": 1,
                "FeatureAnionCount3D": 0,
                "FeatureCationCount3D": 0,
                "FeatureRingCount3D": 0,
                "FeatureHydrophobeCount3D": 0,
                "ConformerModelRMSD3D": 0.4,
                "EffectiveRotorCount3D": 0,
                "ConformerCount3D": 1,
                "Morgan_128": [
                    0,
                    0,
                    0,
                    0,
                    0,
                    0,
                    0,
                    0,
                    0,
                    0,
                    0,
                    0,
                    0,
                    0,
                    0,
                    0,
                    0,
                    0,
                    0,
                    0,
                    0,
                    0,
                    1,
                    0,
                    0,
                    0,
                    0,
                    0,
                    0,
                    0,
                    0,
                    0,
                    0,
                    0,
                    0,
                    0,
                    0,
                    0,
                    0,
                    0,
                    0,
                    0,
                    0,
                    0,
                    0,
                    0,
                    0,
                    0,
                    0,
                    0,
                    0,
                    0,
                    0,
                    0,
                    0,
                    0,
                    0,
                    0,
                    0,
                    0,
                    0,
                    0,
                    0,
                    0,
                    0,
                    0,
                    0,
                    0,
                    0,
                    0,
                    0,
                    0,
                    0,
                    0,
                    0,
                    0,
                    0,
                    0,
                    0,
                    0,
                    0,
                    0,
                    0,
                    0,
                    0,
                    0,
                    0,
                    0,
                    0,
                    0,
                    0,
                    0,
                    0,
                    0,
                    0,
                    0,
                    0,
                    0,
                    0,
                    0,
                    0,
                    0,
                    0,
                    0,
                    0,
                    0,
                    0,
                    0,
                    0,
                    0,
                    0,
                    0,
                    0,
                    0,
                    0,
                    0,
                    0,
                    0,
                    0,
                    0,
                    0,
                    0,
                    0,
                    0,
                    0,
                    0,
                    0,
                    0
                ]
            }
        }
    ],
    "LDL_ranking": 1.0,
    "UDL_ranking": 1.0,
    "LDL_category": "Very Low Detection (High Sensitivity)",
    "UDL_category": "Moderate UDL Range"
}