{
    "DOI": "10.1109/TBCAS.2013.2282894",
    "sensor_type": "liquid",
    "detect_target": [
        {
            "substance_name": "h+",
            "substance_type": "small molecule",
            "substance_descriptors": {
                "CID": 1038,
                "MolecularFormula": "H+",
                "MolecularWeight": "1.0080",
                "CanonicalSMILES": "[H+]",
                "IsomericSMILES": "[H+]",
                "InChI": "InChI=1S/p+1",
                "InChIKey": "GPRLSGONYQIRFK-UHFFFAOYSA-N",
                "IUPACName": "hydron",
                "XLogP": 0,
                "ExactMass": "1.0078250319",
                "MonoisotopicMass": "1.0078250319",
                "TPSA": 0,
                "Complexity": 0,
                "Charge": 1,
                "HBondDonorCount": 1,
                "HBondAcceptorCount": 0,
                "RotatableBondCount": 0,
                "HeavyAtomCount": 0,
                "IsotopeAtomCount": 0,
                "AtomStereoCount": 0,
                "DefinedAtomStereoCount": 0,
                "UndefinedAtomStereoCount": 0,
                "BondStereoCount": 0,
                "DefinedBondStereoCount": 0,
                "UndefinedBondStereoCount": 0,
                "CovalentUnitCount": 1,
                "ConformerCount3D": 0,
                "Morgan_128": [
                    0,
                    0,
                    0,
                    0,
                    0,
                    0,
                    0,
                    0,
                    0,
                    0,
                    0,
                    0,
                    0,
                    0,
                    0,
                    0,
                    0,
                    0,
                    0,
                    0,
                    0,
                    0,
                    0,
                    0,
                    0,
                    0,
                    0,
                    0,
                    0,
                    0,
                    0,
                    0,
                    0,
                    0,
                    0,
                    0,
                    0,
                    0,
                    0,
                    0,
                    1,
                    0,
                    0,
                    0,
                    0,
                    0,
                    0,
                    0,
                    0,
                    0,
                    0,
                    0,
                    0,
                    0,
                    0,
                    0,
                    0,
                    0,
                    0,
                    0,
                    0,
                    0,
                    0,
                    0,
                    0,
                    0,
                    0,
                    0,
                    0,
                    0,
                    0,
                    0,
                    0,
                    0,
                    0,
                    0,
                    0,
                    0,
                    0,
                    0,
                    0,
                    0,
                    0,
                    0,
                    0,
                    0,
                    0,
                    0,
                    0,
                    0,
                    0,
                    0,
                    0,
                    0,
                    0,
                    0,
                    0,
                    0,
                    0,
                    0,
                    0,
                    0,
                    0,
                    0,
                    0,
                    0,
                    0,
                    0,
                    0,
                    0,
                    0,
                    0,
                    0,
                    0,
                    0,
                    0,
                    0,
                    0,
                    0,
                    0,
                    0,
                    0,
                    0,
                    0,
                    0,
                    0,
                    0,
                    0
                ]
            }
        }
    ],
    "lower_detection_limit_log_ppm": -6.0,
    "upper_detection_limit_log_ppm": -2.0,
    "probe_material": [
        {
            "substance_name": "silicon nitride",
            "substance_type": "inorganic solid",
            "substance_descriptors": {
                "Number of Elements": 2,
                "Element Types": [
                    "N",
                    "Si"
                ],
                "Number of Atoms in Unit Cell": 14,
                "Lattice Parameter a (\u00c5)": "7.6018",
                "Lattice Parameter b (\u00c5)": "7.6018",
                "Lattice Parameter c (\u00c5)": "2.9066",
                "Lattice Angle alpha (degrees)": "90",
                "Lattice Angle beta (degrees)": "90",
                "Lattice Angle gamma (degrees)": "120",
                "Unit Cell Volume (\u00c5\u00b3)": 145.49663109055865,
                "Density (g/cm\u00b3)": 3.2020796398588742,
                "Space Group Number": 176,
                "Band Gap (eV)": 4.2503,
                "Is Metallic (1/0)": 0,
                "Formation Energy per Atom (eV)": -1.3209434628571444,
                "Energy Above Hull (eV/atom)": 0.0,
                "Energy per Atom (eV/atom)": -10.297557244285715,
                "Total Magnetization (\u03bcB)": 0.0,
                "Magnetic Ordering": "NM",
                "Bulk Modulus (GPa)": 234.569,
                "Shear Modulus (GPa)": 122.364,
                "Fermi Energy (eV)": 6.65520584,
                "Total Energy (eV)": -6.90022,
                "Crystal System": "hexagonal",
                "Magpie Descriptors": {
                    "MagpieData minimum Number": 7.0,
                    "MagpieData maximum Number": 14.0,
                    "MagpieData range Number": 7.0,
                    "MagpieData mean Number": 11.0,
                    "MagpieData avg_dev Number": 3.4285714285714284,
                    "MagpieData mode Number": 14.0,
                    "MagpieData std_dev Number": 4.949747468305832,
                    "MagpieData minimum MendeleevNumber": 78.0,
                    "MagpieData maximum MendeleevNumber": 82.0,
                    "MagpieData range MendeleevNumber": 4.0,
                    "MagpieData mean MendeleevNumber": 79.71428571428571,
                    "MagpieData avg_dev MendeleevNumber": 1.9591836734693868,
                    "MagpieData mode MendeleevNumber": 78.0,
                    "MagpieData std_dev MendeleevNumber": 2.82842712474619,
                    "MagpieData minimum AtomicWeight": 14.0067,
                    "MagpieData maximum AtomicWeight": 28.0855,
                    "MagpieData range AtomicWeight": 14.0788,
                    "MagpieData mean AtomicWeight": 22.05172857142857,
                    "MagpieData avg_dev AtomicWeight": 6.895738775510203,
                    "MagpieData mode AtomicWeight": 28.0855,
                    "MagpieData std_dev AtomicWeight": 9.955214950969163,
                    "MagpieData minimum MeltingT": 63.05,
                    "MagpieData maximum MeltingT": 1687.0,
                    "MagpieData range MeltingT": 1623.95,
                    "MagpieData mean MeltingT": 991.0214285714286,
                    "MagpieData avg_dev MeltingT": 795.4040816326531,
                    "MagpieData mode MeltingT": 1687.0,
                    "MagpieData std_dev MeltingT": 1148.3060573078938,
                    "MagpieData minimum Column": 14.0,
                    "MagpieData maximum Column": 15.0,
                    "MagpieData range Column": 1.0,
                    "MagpieData mean Column": 14.428571428571427,
                    "MagpieData avg_dev Column": 0.4897959183673467,
                    "MagpieData mode Column": 14.0,
                    "MagpieData std_dev Column": 0.7071067811865475,
                    "MagpieData minimum Row": 2.0,
                    "MagpieData maximum Row": 3.0,
                    "MagpieData range Row": 1.0,
                    "MagpieData mean Row": 2.571428571428571,
                    "MagpieData avg_dev Row": 0.4897959183673469,
                    "MagpieData mode Row": 3.0,
                    "MagpieData std_dev Row": 0.7071067811865475,
                    "MagpieData minimum CovalentRadius": 71.0,
                    "MagpieData maximum CovalentRadius": 111.0,
                    "MagpieData range CovalentRadius": 40.0,
                    "MagpieData mean CovalentRadius": 93.85714285714285,
                    "MagpieData avg_dev CovalentRadius": 19.591836734693878,
                    "MagpieData mode CovalentRadius": 111.0,
                    "MagpieData std_dev CovalentRadius": 28.2842712474619,
                    "MagpieData minimum Electronegativity": 1.9,
                    "MagpieData maximum Electronegativity": 3.04,
                    "MagpieData range Electronegativity": 1.1400000000000001,
                    "MagpieData mean Electronegativity": 2.3885714285714283,
                    "MagpieData avg_dev Electronegativity": 0.5583673469387755,
                    "MagpieData mode Electronegativity": 1.9,
                    "MagpieData std_dev Electronegativity": 0.8061017305526641,
                    "MagpieData minimum NsValence": 2.0,
                    "MagpieData maximum NsValence": 2.0,
                    "MagpieData range NsValence": 0.0,
                    "MagpieData mean NsValence": 2.0,
                    "MagpieData avg_dev NsValence": 0.0,
                    "MagpieData mode NsValence": 2.0,
                    "MagpieData std_dev NsValence": 0.0,
                    "MagpieData minimum NpValence": 2.0,
                    "MagpieData maximum NpValence": 3.0,
                    "MagpieData range NpValence": 1.0,
                    "MagpieData mean NpValence": 2.4285714285714284,
                    "MagpieData avg_dev NpValence": 0.4897959183673469,
                    "MagpieData mode NpValence": 2.0,
                    "MagpieData std_dev NpValence": 0.7071067811865475,
                    "MagpieData minimum NdValence": 0.0,
                    "MagpieData maximum NdValence": 0.0,
                    "MagpieData range NdValence": 0.0,
                    "MagpieData mean NdValence": 0.0,
                    "MagpieData avg_dev NdValence": 0.0,
                    "MagpieData mode NdValence": 0.0,
                    "MagpieData std_dev NdValence": 0.0,
                    "MagpieData minimum NfValence": 0.0,
                    "MagpieData maximum NfValence": 0.0,
                    "MagpieData range NfValence": 0.0,
                    "MagpieData mean NfValence": 0.0,
                    "MagpieData avg_dev NfValence": 0.0,
                    "MagpieData mode NfValence": 0.0,
                    "MagpieData std_dev NfValence": 0.0,
                    "MagpieData minimum NValence": 4.0,
                    "MagpieData maximum NValence": 5.0,
                    "MagpieData range NValence": 1.0,
                    "MagpieData mean NValence": 4.428571428571429,
                    "MagpieData avg_dev NValence": 0.4897959183673469,
                    "MagpieData mode NValence": 4.0,
                    "MagpieData std_dev NValence": 0.7071067811865475,
                    "MagpieData minimum NsUnfilled": 0.0,
                    "MagpieData maximum NsUnfilled": 0.0,
                    "MagpieData range NsUnfilled": 0.0,
                    "MagpieData mean NsUnfilled": 0.0,
                    "MagpieData avg_dev NsUnfilled": 0.0,
                    "MagpieData mode NsUnfilled": 0.0,
                    "MagpieData std_dev NsUnfilled": 0.0,
                    "MagpieData minimum NpUnfilled": 3.0,
                    "MagpieData maximum NpUnfilled": 4.0,
                    "MagpieData range NpUnfilled": 1.0,
                    "MagpieData mean NpUnfilled": 3.571428571428571,
                    "MagpieData avg_dev NpUnfilled": 0.4897959183673469,
                    "MagpieData mode NpUnfilled": 4.0,
                    "MagpieData std_dev NpUnfilled": 0.7071067811865475,
                    "MagpieData minimum NdUnfilled": 0.0,
                    "MagpieData maximum NdUnfilled": 0.0,
                    "MagpieData range NdUnfilled": 0.0,
                    "MagpieData mean NdUnfilled": 0.0,
                    "MagpieData avg_dev NdUnfilled": 0.0,
                    "MagpieData mode NdUnfilled": 0.0,
                    "MagpieData std_dev NdUnfilled": 0.0,
                    "MagpieData minimum NfUnfilled": 0.0,
                    "MagpieData maximum NfUnfilled": 0.0,
                    "MagpieData range NfUnfilled": 0.0,
                    "MagpieData mean NfUnfilled": 0.0,
                    "MagpieData avg_dev NfUnfilled": 0.0,
                    "MagpieData mode NfUnfilled": 0.0,
                    "MagpieData std_dev NfUnfilled": 0.0,
                    "MagpieData minimum NUnfilled": 3.0,
                    "MagpieData maximum NUnfilled": 4.0,
                    "MagpieData range NUnfilled": 1.0,
                    "MagpieData mean NUnfilled": 3.571428571428571,
                    "MagpieData avg_dev NUnfilled": 0.4897959183673469,
                    "MagpieData mode NUnfilled": 4.0,
                    "MagpieData std_dev NUnfilled": 0.7071067811865475,
                    "MagpieData minimum GSvolume_pa": 14.76875,
                    "MagpieData maximum GSvolume_pa": 20.44,
                    "MagpieData range GSvolume_pa": 5.671250000000001,
                    "MagpieData mean GSvolume_pa": 18.009464285714287,
                    "MagpieData avg_dev GSvolume_pa": 2.7777551020408167,
                    "MagpieData mode GSvolume_pa": 20.44,
                    "MagpieData std_dev GSvolume_pa": 4.010179332804207,
                    "MagpieData minimum GSbandgap": 0.773,
                    "MagpieData maximum GSbandgap": 6.437,
                    "MagpieData range GSbandgap": 5.664000000000001,
                    "MagpieData mean GSbandgap": 3.2004285714285716,
                    "MagpieData avg_dev GSbandgap": 2.774204081632653,
                    "MagpieData mode GSbandgap": 0.773,
                    "MagpieData std_dev GSbandgap": 4.005052808640604,
                    "MagpieData minimum GSmagmom": 0.0,
                    "MagpieData maximum GSmagmom": 0.0,
                    "MagpieData range GSmagmom": 0.0,
                    "MagpieData mean GSmagmom": 0.0,
                    "MagpieData avg_dev GSmagmom": 0.0,
                    "MagpieData mode GSmagmom": 0.0,
                    "MagpieData std_dev GSmagmom": 0.0,
                    "MagpieData minimum SpaceGroupNumber": 194.0,
                    "MagpieData maximum SpaceGroupNumber": 227.0,
                    "MagpieData range SpaceGroupNumber": 33.0,
                    "MagpieData mean SpaceGroupNumber": 212.85714285714283,
                    "MagpieData avg_dev SpaceGroupNumber": 16.16326530612245,
                    "MagpieData mode SpaceGroupNumber": 227.0,
                    "MagpieData std_dev SpaceGroupNumber": 23.334523779156065
                }
            }
        }
    ],
    "test_operating_temperature_celsius": 23.75,
    "min_pH_when_testing": 5.0,
    "max_pH_when_testing": 9.0,
    "test_medium_electrolyte": [
        {
            "substance_name": "water",
            "substance_type": "small molecule",
            "substance_descriptors": {
                "CID": 962,
                "MolecularFormula": "H2O",
                "MolecularWeight": "18.015",
                "CanonicalSMILES": "O",
                "IsomericSMILES": "O",
                "InChI": "InChI=1S/H2O/h1H2",
                "InChIKey": "XLYOFNOQVPJJNP-UHFFFAOYSA-N",
                "IUPACName": "oxidane",
                "XLogP": -0.5,
                "ExactMass": "18.010564683",
                "MonoisotopicMass": "18.010564683",
                "TPSA": 1,
                "Complexity": 0,
                "Charge": 0,
                "HBondDonorCount": 1,
                "HBondAcceptorCount": 1,
                "RotatableBondCount": 0,
                "HeavyAtomCount": 1,
                "IsotopeAtomCount": 0,
                "AtomStereoCount": 0,
                "DefinedAtomStereoCount": 0,
                "UndefinedAtomStereoCount": 0,
                "BondStereoCount": 0,
                "DefinedBondStereoCount": 0,
                "UndefinedBondStereoCount": 0,
                "CovalentUnitCount": 1,
                "Volume3D": 14.7,
                "XStericQuadrupole3D": 0.49,
                "YStericQuadrupole3D": 0.49,
                "ZStericQuadrupole3D": 0.49,
                "FeatureAcceptorCount3D": 1,
                "FeatureDonorCount3D": 1,
                "FeatureAnionCount3D": 0,
                "FeatureCationCount3D": 0,
                "FeatureRingCount3D": 0,
                "FeatureHydrophobeCount3D": 0,
                "ConformerModelRMSD3D": 0.4,
                "EffectiveRotorCount3D": 0,
                "ConformerCount3D": 1,
                "Morgan_128": [
                    0,
                    0,
                    0,
                    0,
                    0,
                    0,
                    0,
                    0,
                    0,
                    0,
                    0,
                    0,
                    0,
                    0,
                    0,
                    0,
                    0,
                    0,
                    0,
                    0,
                    0,
                    0,
                    1,
                    0,
                    0,
                    0,
                    0,
                    0,
                    0,
                    0,
                    0,
                    0,
                    0,
                    0,
                    0,
                    0,
                    0,
                    0,
                    0,
                    0,
                    0,
                    0,
                    0,
                    0,
                    0,
                    0,
                    0,
                    0,
                    0,
                    0,
                    0,
                    0,
                    0,
                    0,
                    0,
                    0,
                    0,
                    0,
                    0,
                    0,
                    0,
                    0,
                    0,
                    0,
                    0,
                    0,
                    0,
                    0,
                    0,
                    0,
                    0,
                    0,
                    0,
                    0,
                    0,
                    0,
                    0,
                    0,
                    0,
                    0,
                    0,
                    0,
                    0,
                    0,
                    0,
                    0,
                    0,
                    0,
                    0,
                    0,
                    0,
                    0,
                    0,
                    0,
                    0,
                    0,
                    0,
                    0,
                    0,
                    0,
                    0,
                    0,
                    0,
                    0,
                    0,
                    0,
                    0,
                    0,
                    0,
                    0,
                    0,
                    0,
                    0,
                    0,
                    0,
                    0,
                    0,
                    0,
                    0,
                    0,
                    0,
                    0,
                    0,
                    0,
                    0,
                    0,
                    0,
                    0
                ]
            }
        }
    ],
    "LDL_ranking": 6.0,
    "UDL_ranking": 8.0,
    "LDL_category": "Low Detection",
    "UDL_category": "Low UDL Range"
}