{
    "DOI": "10.1016/j.snb.2012.09.109",
    "sensor_type": "liquid",
    "detect_target": [
        {
            "substance_name": "h+",
            "substance_type": "small molecule",
            "substance_descriptors": {
                "CID": 1038,
                "MolecularFormula": "H+",
                "MolecularWeight": "1.0080",
                "CanonicalSMILES": "[H+]",
                "IsomericSMILES": "[H+]",
                "InChI": "InChI=1S/p+1",
                "InChIKey": "GPRLSGONYQIRFK-UHFFFAOYSA-N",
                "IUPACName": "hydron",
                "XLogP": 0,
                "ExactMass": "1.0078250319",
                "MonoisotopicMass": "1.0078250319",
                "TPSA": 0,
                "Complexity": 0,
                "Charge": 1,
                "HBondDonorCount": 1,
                "HBondAcceptorCount": 0,
                "RotatableBondCount": 0,
                "HeavyAtomCount": 0,
                "IsotopeAtomCount": 0,
                "AtomStereoCount": 0,
                "DefinedAtomStereoCount": 0,
                "UndefinedAtomStereoCount": 0,
                "BondStereoCount": 0,
                "DefinedBondStereoCount": 0,
                "UndefinedBondStereoCount": 0,
                "CovalentUnitCount": 1,
                "ConformerCount3D": 0,
                "Morgan_128": [
                    0,
                    0,
                    0,
                    0,
                    0,
                    0,
                    0,
                    0,
                    0,
                    0,
                    0,
                    0,
                    0,
                    0,
                    0,
                    0,
                    0,
                    0,
                    0,
                    0,
                    0,
                    0,
                    0,
                    0,
                    0,
                    0,
                    0,
                    0,
                    0,
                    0,
                    0,
                    0,
                    0,
                    0,
                    0,
                    0,
                    0,
                    0,
                    0,
                    0,
                    1,
                    0,
                    0,
                    0,
                    0,
                    0,
                    0,
                    0,
                    0,
                    0,
                    0,
                    0,
                    0,
                    0,
                    0,
                    0,
                    0,
                    0,
                    0,
                    0,
                    0,
                    0,
                    0,
                    0,
                    0,
                    0,
                    0,
                    0,
                    0,
                    0,
                    0,
                    0,
                    0,
                    0,
                    0,
                    0,
                    0,
                    0,
                    0,
                    0,
                    0,
                    0,
                    0,
                    0,
                    0,
                    0,
                    0,
                    0,
                    0,
                    0,
                    0,
                    0,
                    0,
                    0,
                    0,
                    0,
                    0,
                    0,
                    0,
                    0,
                    0,
                    0,
                    0,
                    0,
                    0,
                    0,
                    0,
                    0,
                    0,
                    0,
                    0,
                    0,
                    0,
                    0,
                    0,
                    0,
                    0,
                    0,
                    0,
                    0,
                    0,
                    0,
                    0,
                    0,
                    0,
                    0,
                    0,
                    0
                ]
            }
        }
    ],
    "lower_detection_limit_log_ppm": -7.0,
    "upper_detection_limit_log_ppm": -1.0,
    "probe_material": [
        {
            "substance_name": "gallium oxide",
            "substance_type": "inorganic solid",
            "substance_descriptors": {
                "Number of Elements": 2,
                "Element Types": [
                    "O",
                    "Ga"
                ],
                "Number of Atoms in Unit Cell": 10,
                "Lattice Parameter a (\u00c5)": "12.214",
                "Lattice Parameter b (\u00c5)": "3.0371",
                "Lattice Parameter c (\u00c5)": "5.7981",
                "Lattice Angle alpha (degrees)": "90",
                "Lattice Angle beta (degrees)": "103.83",
                "Lattice Angle gamma (degrees)": "90",
                "Unit Cell Volume (\u00c5\u00b3)": 105.73376293730534,
                "Density (g/cm\u00b3)": 5.887587999533202,
                "Space Group Number": 12,
                "Band Gap (eV)": 2.0077999999999996,
                "Is Metallic (1/0)": 0,
                "Formation Energy per Atom (eV)": -2.095803156000001,
                "Energy Above Hull (eV/atom)": 0.0,
                "Energy per Atom (eV/atom)": -10.249303851,
                "Total Magnetization (\u03bcB)": 0.0,
                "Magnetic Ordering": "NM",
                "Bulk Modulus (GPa)": 155.545,
                "Shear Modulus (GPa)": 70.553,
                "Fermi Energy (eV)": 2.06965603,
                "Total Energy (eV)": -3.69205,
                "Crystal System": "monoclinic",
                "Magpie Descriptors": {
                    "MagpieData minimum Number": 8.0,
                    "MagpieData maximum Number": 31.0,
                    "MagpieData range Number": 23.0,
                    "MagpieData mean Number": 21.799999999999997,
                    "MagpieData avg_dev Number": 11.040000000000001,
                    "MagpieData mode Number": 31.0,
                    "MagpieData std_dev Number": 16.263455967290597,
                    "MagpieData minimum MendeleevNumber": 74.0,
                    "MagpieData maximum MendeleevNumber": 87.0,
                    "MagpieData range MendeleevNumber": 13.0,
                    "MagpieData mean MendeleevNumber": 79.2,
                    "MagpieData avg_dev MendeleevNumber": 6.24,
                    "MagpieData mode MendeleevNumber": 74.0,
                    "MagpieData std_dev MendeleevNumber": 9.19238815542512,
                    "MagpieData minimum AtomicWeight": 15.9994,
                    "MagpieData maximum AtomicWeight": 69.723,
                    "MagpieData range AtomicWeight": 53.7236,
                    "MagpieData mean AtomicWeight": 48.23356,
                    "MagpieData avg_dev AtomicWeight": 25.787328000000002,
                    "MagpieData mode AtomicWeight": 69.723,
                    "MagpieData std_dev AtomicWeight": 37.988321869753605,
                    "MagpieData minimum MeltingT": 54.8,
                    "MagpieData maximum MeltingT": 302.91,
                    "MagpieData range MeltingT": 248.11,
                    "MagpieData mean MeltingT": 203.666,
                    "MagpieData avg_dev MeltingT": 119.09280000000001,
                    "MagpieData mode MeltingT": 302.91,
                    "MagpieData std_dev MeltingT": 175.44026348019432,
                    "MagpieData minimum Column": 13.0,
                    "MagpieData maximum Column": 16.0,
                    "MagpieData range Column": 3.0,
                    "MagpieData mean Column": 14.2,
                    "MagpieData avg_dev Column": 1.44,
                    "MagpieData mode Column": 13.0,
                    "MagpieData std_dev Column": 2.121320343559643,
                    "MagpieData minimum Row": 2.0,
                    "MagpieData maximum Row": 4.0,
                    "MagpieData range Row": 2.0,
                    "MagpieData mean Row": 3.2,
                    "MagpieData avg_dev Row": 0.96,
                    "MagpieData mode Row": 4.0,
                    "MagpieData std_dev Row": 1.4142135623730951,
                    "MagpieData minimum CovalentRadius": 66.0,
                    "MagpieData maximum CovalentRadius": 122.0,
                    "MagpieData range CovalentRadius": 56.0,
                    "MagpieData mean CovalentRadius": 99.60000000000001,
                    "MagpieData avg_dev CovalentRadius": 26.88,
                    "MagpieData mode CovalentRadius": 122.0,
                    "MagpieData std_dev CovalentRadius": 39.59797974644666,
                    "MagpieData minimum Electronegativity": 1.81,
                    "MagpieData maximum Electronegativity": 3.44,
                    "MagpieData range Electronegativity": 1.63,
                    "MagpieData mean Electronegativity": 2.462,
                    "MagpieData avg_dev Electronegativity": 0.7824,
                    "MagpieData mode Electronegativity": 1.81,
                    "MagpieData std_dev Electronegativity": 1.1525840533340725,
                    "MagpieData minimum NsValence": 2.0,
                    "MagpieData maximum NsValence": 2.0,
                    "MagpieData range NsValence": 0.0,
                    "MagpieData mean NsValence": 2.0,
                    "MagpieData avg_dev NsValence": 0.0,
                    "MagpieData mode NsValence": 2.0,
                    "MagpieData std_dev NsValence": 0.0,
                    "MagpieData minimum NpValence": 1.0,
                    "MagpieData maximum NpValence": 4.0,
                    "MagpieData range NpValence": 3.0,
                    "MagpieData mean NpValence": 2.2,
                    "MagpieData avg_dev NpValence": 1.44,
                    "MagpieData mode NpValence": 1.0,
                    "MagpieData std_dev NpValence": 2.121320343559643,
                    "MagpieData minimum NdValence": 0.0,
                    "MagpieData maximum NdValence": 10.0,
                    "MagpieData range NdValence": 10.0,
                    "MagpieData mean NdValence": 6.0,
                    "MagpieData avg_dev NdValence": 4.800000000000001,
                    "MagpieData mode NdValence": 10.0,
                    "MagpieData std_dev NdValence": 7.0710678118654755,
                    "MagpieData minimum NfValence": 0.0,
                    "MagpieData maximum NfValence": 0.0,
                    "MagpieData range NfValence": 0.0,
                    "MagpieData mean NfValence": 0.0,
                    "MagpieData avg_dev NfValence": 0.0,
                    "MagpieData mode NfValence": 0.0,
                    "MagpieData std_dev NfValence": 0.0,
                    "MagpieData minimum NValence": 6.0,
                    "MagpieData maximum NValence": 13.0,
                    "MagpieData range NValence": 7.0,
                    "MagpieData mean NValence": 10.2,
                    "MagpieData avg_dev NValence": 3.3600000000000003,
                    "MagpieData mode NValence": 13.0,
                    "MagpieData std_dev NValence": 4.949747468305833,
                    "MagpieData minimum NsUnfilled": 0.0,
                    "MagpieData maximum NsUnfilled": 0.0,
                    "MagpieData range NsUnfilled": 0.0,
                    "MagpieData mean NsUnfilled": 0.0,
                    "MagpieData avg_dev NsUnfilled": 0.0,
                    "MagpieData mode NsUnfilled": 0.0,
                    "MagpieData std_dev NsUnfilled": 0.0,
                    "MagpieData minimum NpUnfilled": 2.0,
                    "MagpieData maximum NpUnfilled": 5.0,
                    "MagpieData range NpUnfilled": 3.0,
                    "MagpieData mean NpUnfilled": 3.8,
                    "MagpieData avg_dev NpUnfilled": 1.44,
                    "MagpieData mode NpUnfilled": 5.0,
                    "MagpieData std_dev NpUnfilled": 2.121320343559643,
                    "MagpieData minimum NdUnfilled": 0.0,
                    "MagpieData maximum NdUnfilled": 0.0,
                    "MagpieData range NdUnfilled": 0.0,
                    "MagpieData mean NdUnfilled": 0.0,
                    "MagpieData avg_dev NdUnfilled": 0.0,
                    "MagpieData mode NdUnfilled": 0.0,
                    "MagpieData std_dev NdUnfilled": 0.0,
                    "MagpieData minimum NfUnfilled": 0.0,
                    "MagpieData maximum NfUnfilled": 0.0,
                    "MagpieData range NfUnfilled": 0.0,
                    "MagpieData mean NfUnfilled": 0.0,
                    "MagpieData avg_dev NfUnfilled": 0.0,
                    "MagpieData mode NfUnfilled": 0.0,
                    "MagpieData std_dev NfUnfilled": 0.0,
                    "MagpieData minimum NUnfilled": 2.0,
                    "MagpieData maximum NUnfilled": 5.0,
                    "MagpieData range NUnfilled": 3.0,
                    "MagpieData mean NUnfilled": 3.8,
                    "MagpieData avg_dev NUnfilled": 1.44,
                    "MagpieData mode NUnfilled": 5.0,
                    "MagpieData std_dev NUnfilled": 2.121320343559643,
                    "MagpieData minimum GSvolume_pa": 9.105,
                    "MagpieData maximum GSvolume_pa": 18.8575,
                    "MagpieData range GSvolume_pa": 9.752500000000001,
                    "MagpieData mean GSvolume_pa": 14.956500000000002,
                    "MagpieData avg_dev GSvolume_pa": 4.6812000000000005,
                    "MagpieData mode GSvolume_pa": 18.8575,
                    "MagpieData std_dev GSvolume_pa": 6.896058883521806,
                    "MagpieData minimum GSbandgap": 0.0,
                    "MagpieData maximum GSbandgap": 0.0,
                    "MagpieData range GSbandgap": 0.0,
                    "MagpieData mean GSbandgap": 0.0,
                    "MagpieData avg_dev GSbandgap": 0.0,
                    "MagpieData mode GSbandgap": 0.0,
                    "MagpieData std_dev GSbandgap": 0.0,
                    "MagpieData minimum GSmagmom": 0.0,
                    "MagpieData maximum GSmagmom": 0.0,
                    "MagpieData range GSmagmom": 0.0,
                    "MagpieData mean GSmagmom": 0.0,
                    "MagpieData avg_dev GSmagmom": 0.0,
                    "MagpieData mode GSmagmom": 0.0,
                    "MagpieData std_dev GSmagmom": 0.0,
                    "MagpieData minimum SpaceGroupNumber": 12.0,
                    "MagpieData maximum SpaceGroupNumber": 64.0,
                    "MagpieData range SpaceGroupNumber": 52.0,
                    "MagpieData mean SpaceGroupNumber": 43.2,
                    "MagpieData avg_dev SpaceGroupNumber": 24.96,
                    "MagpieData mode SpaceGroupNumber": 64.0,
                    "MagpieData std_dev SpaceGroupNumber": 36.76955262170048
                }
            }
        }
    ],
    "test_operating_temperature_celsius": 22.5,
    "min_pH_when_testing": 4.0,
    "max_pH_when_testing": 10.0,
    "test_medium_electrolyte": [
        {
            "substance_name": "water",
            "substance_type": "small molecule",
            "substance_descriptors": {
                "CID": 962,
                "MolecularFormula": "H2O",
                "MolecularWeight": "18.015",
                "CanonicalSMILES": "O",
                "IsomericSMILES": "O",
                "InChI": "InChI=1S/H2O/h1H2",
                "InChIKey": "XLYOFNOQVPJJNP-UHFFFAOYSA-N",
                "IUPACName": "oxidane",
                "XLogP": -0.5,
                "ExactMass": "18.010564683",
                "MonoisotopicMass": "18.010564683",
                "TPSA": 1,
                "Complexity": 0,
                "Charge": 0,
                "HBondDonorCount": 1,
                "HBondAcceptorCount": 1,
                "RotatableBondCount": 0,
                "HeavyAtomCount": 1,
                "IsotopeAtomCount": 0,
                "AtomStereoCount": 0,
                "DefinedAtomStereoCount": 0,
                "UndefinedAtomStereoCount": 0,
                "BondStereoCount": 0,
                "DefinedBondStereoCount": 0,
                "UndefinedBondStereoCount": 0,
                "CovalentUnitCount": 1,
                "Volume3D": 14.7,
                "XStericQuadrupole3D": 0.49,
                "YStericQuadrupole3D": 0.49,
                "ZStericQuadrupole3D": 0.49,
                "FeatureAcceptorCount3D": 1,
                "FeatureDonorCount3D": 1,
                "FeatureAnionCount3D": 0,
                "FeatureCationCount3D": 0,
                "FeatureRingCount3D": 0,
                "FeatureHydrophobeCount3D": 0,
                "ConformerModelRMSD3D": 0.4,
                "EffectiveRotorCount3D": 0,
                "ConformerCount3D": 1,
                "Morgan_128": [
                    0,
                    0,
                    0,
                    0,
                    0,
                    0,
                    0,
                    0,
                    0,
                    0,
                    0,
                    0,
                    0,
                    0,
                    0,
                    0,
                    0,
                    0,
                    0,
                    0,
                    0,
                    0,
                    1,
                    0,
                    0,
                    0,
                    0,
                    0,
                    0,
                    0,
                    0,
                    0,
                    0,
                    0,
                    0,
                    0,
                    0,
                    0,
                    0,
                    0,
                    0,
                    0,
                    0,
                    0,
                    0,
                    0,
                    0,
                    0,
                    0,
                    0,
                    0,
                    0,
                    0,
                    0,
                    0,
                    0,
                    0,
                    0,
                    0,
                    0,
                    0,
                    0,
                    0,
                    0,
                    0,
                    0,
                    0,
                    0,
                    0,
                    0,
                    0,
                    0,
                    0,
                    0,
                    0,
                    0,
                    0,
                    0,
                    0,
                    0,
                    0,
                    0,
                    0,
                    0,
                    0,
                    0,
                    0,
                    0,
                    0,
                    0,
                    0,
                    0,
                    0,
                    0,
                    0,
                    0,
                    0,
                    0,
                    0,
                    0,
                    0,
                    0,
                    0,
                    0,
                    0,
                    0,
                    0,
                    0,
                    0,
                    0,
                    0,
                    0,
                    0,
                    0,
                    0,
                    0,
                    0,
                    0,
                    0,
                    0,
                    0,
                    0,
                    0,
                    0,
                    0,
                    0,
                    0,
                    0
                ]
            }
        }
    ],
    "LDL_ranking": 3.04,
    "UDL_ranking": 4.04,
    "LDL_category": "Very Low Detection (High Sensitivity)",
    "UDL_category": "Low UDL Range"
}