{
    "DOI": "10.1016/j.envres.2023.117193",
    "sensor_type": "liquid",
    "detect_target": [
        {
            "substance_name": "cobalt ferrite",
            "substance_type": "inorganic solid",
            "substance_descriptors": {
                "Number of Elements": 3,
                "Element Types": [
                    "O",
                    "Co",
                    "Fe"
                ],
                "Number of Atoms in Unit Cell": 14,
                "Lattice Parameter a (\u00c5)": "8.3806",
                "Lattice Parameter b (\u00c5)": "8.3806",
                "Lattice Parameter c (\u00c5)": "8.3806",
                "Lattice Angle alpha (degrees)": "90",
                "Lattice Angle beta (degrees)": "90",
                "Lattice Angle gamma (degrees)": "90",
                "Unit Cell Volume (\u00c5\u00b3)": 150.6437935459906,
                "Density (g/cm\u00b3)": 5.172426779272635,
                "Space Group Number": 227,
                "Band Gap (eV)": 1.5511,
                "Is Metallic (1/0)": 0,
                "Formation Energy per Atom (eV)": -1.5700428128571409,
                "Energy Above Hull (eV/atom)": 0.010229785357140031,
                "Energy per Atom (eV/atom)": -7.838973388571427,
                "Total Magnetization (\u03bcB)": 25.9999977,
                "Magnetic Ordering": "FM",
                "Bulk Modulus (GPa)": -99999,
                "Shear Modulus (GPa)": -99999,
                "Fermi Energy (eV)": 2.90527891,
                "Total Energy (eV)": -4.98033,
                "Crystal System": "cubic",
                "Magpie Descriptors": {
                    "MagpieData minimum Number": 8.0,
                    "MagpieData maximum Number": 27.0,
                    "MagpieData range Number": 19.0,
                    "MagpieData mean Number": 21.0,
                    "MagpieData avg_dev Number": 7.428571428571428,
                    "MagpieData mode Number": 26.0,
                    "MagpieData std_dev Number": 10.885770528538622,
                    "MagpieData minimum MendeleevNumber": 55.0,
                    "MagpieData maximum MendeleevNumber": 87.0,
                    "MagpieData range MendeleevNumber": 32.0,
                    "MagpieData mean MendeleevNumber": 64.57142857142857,
                    "MagpieData avg_dev MendeleevNumber": 12.816326530612244,
                    "MagpieData mode MendeleevNumber": 55.0,
                    "MagpieData std_dev MendeleevNumber": 18.81298943359538,
                    "MagpieData minimum AtomicWeight": 15.9994,
                    "MagpieData maximum AtomicWeight": 58.933195,
                    "MagpieData range AtomicWeight": 42.933794999999996,
                    "MagpieData mean AtomicWeight": 44.901713571428566,
                    "MagpieData avg_dev AtomicWeight": 16.51560775510204,
                    "MagpieData mode AtomicWeight": 55.845,
                    "MagpieData std_dev AtomicWeight": 24.220817503099145,
                    "MagpieData minimum MeltingT": 54.8,
                    "MagpieData maximum MeltingT": 1811.0,
                    "MagpieData range MeltingT": 1756.2,
                    "MagpieData mean MeltingT": 1303.0857142857144,
                    "MagpieData avg_dev MeltingT": 713.3061224489795,
                    "MagpieData mode MeltingT": 1811.0,
                    "MagpieData std_dev MeltingT": 1044.567784848287,
                    "MagpieData minimum Column": 8.0,
                    "MagpieData maximum Column": 16.0,
                    "MagpieData range Column": 8.0,
                    "MagpieData mean Column": 10.428571428571427,
                    "MagpieData avg_dev Column": 3.183673469387754,
                    "MagpieData mode Column": 8.0,
                    "MagpieData std_dev Column": 4.6827952580239325,
                    "MagpieData minimum Row": 2.0,
                    "MagpieData maximum Row": 4.0,
                    "MagpieData range Row": 2.0,
                    "MagpieData mean Row": 3.4285714285714284,
                    "MagpieData avg_dev Row": 0.8163265306122449,
                    "MagpieData mode Row": 4.0,
                    "MagpieData std_dev Row": 1.1952286093343936,
                    "MagpieData minimum CovalentRadius": 66.0,
                    "MagpieData maximum CovalentRadius": 132.0,
                    "MagpieData range CovalentRadius": 66.0,
                    "MagpieData mean CovalentRadius": 112.28571428571429,
                    "MagpieData avg_dev CovalentRadius": 26.448979591836732,
                    "MagpieData mode CovalentRadius": 132.0,
                    "MagpieData std_dev CovalentRadius": 38.81825785448315,
                    "MagpieData minimum Electronegativity": 1.83,
                    "MagpieData maximum Electronegativity": 3.44,
                    "MagpieData range Electronegativity": 1.6099999999999999,
                    "MagpieData mean Electronegativity": 2.297142857142857,
                    "MagpieData avg_dev Electronegativity": 0.6530612244897958,
                    "MagpieData mode Electronegativity": 1.83,
                    "MagpieData std_dev Electronegativity": 0.9564443079896049,
                    "MagpieData minimum NsValence": 2.0,
                    "MagpieData maximum NsValence": 2.0,
                    "MagpieData range NsValence": 0.0,
                    "MagpieData mean NsValence": 2.0,
                    "MagpieData avg_dev NsValence": 0.0,
                    "MagpieData mode NsValence": 2.0,
                    "MagpieData std_dev NsValence": 0.0,
                    "MagpieData minimum NpValence": 0.0,
                    "MagpieData maximum NpValence": 4.0,
                    "MagpieData range NpValence": 4.0,
                    "MagpieData mean NpValence": 1.1428571428571428,
                    "MagpieData avg_dev NpValence": 1.6326530612244898,
                    "MagpieData mode NpValence": 0.0,
                    "MagpieData std_dev NpValence": 2.390457218668787,
                    "MagpieData minimum NdValence": 0.0,
                    "MagpieData maximum NdValence": 7.0,
                    "MagpieData range NdValence": 7.0,
                    "MagpieData mean NdValence": 4.428571428571429,
                    "MagpieData avg_dev NdValence": 2.530612244897959,
                    "MagpieData mode NdValence": 6.0,
                    "MagpieData std_dev NdValence": 3.7321001364608946,
                    "MagpieData minimum NfValence": 0.0,
                    "MagpieData maximum NfValence": 0.0,
                    "MagpieData range NfValence": 0.0,
                    "MagpieData mean NfValence": 0.0,
                    "MagpieData avg_dev NfValence": 0.0,
                    "MagpieData mode NfValence": 0.0,
                    "MagpieData std_dev NfValence": 0.0,
                    "MagpieData minimum NValence": 6.0,
                    "MagpieData maximum NValence": 9.0,
                    "MagpieData range NValence": 3.0,
                    "MagpieData mean NValence": 7.571428571428571,
                    "MagpieData avg_dev NValence": 0.8979591836734695,
                    "MagpieData mode NValence": 8.0,
                    "MagpieData std_dev NValence": 1.3887301496588274,
                    "MagpieData minimum NsUnfilled": 0.0,
                    "MagpieData maximum NsUnfilled": 0.0,
                    "MagpieData range NsUnfilled": 0.0,
                    "MagpieData mean NsUnfilled": 0.0,
                    "MagpieData avg_dev NsUnfilled": 0.0,
                    "MagpieData mode NsUnfilled": 0.0,
                    "MagpieData std_dev NsUnfilled": 0.0,
                    "MagpieData minimum NpUnfilled": 0.0,
                    "MagpieData maximum NpUnfilled": 2.0,
                    "MagpieData range NpUnfilled": 2.0,
                    "MagpieData mean NpUnfilled": 0.5714285714285714,
                    "MagpieData avg_dev NpUnfilled": 0.8163265306122449,
                    "MagpieData mode NpUnfilled": 0.0,
                    "MagpieData std_dev NpUnfilled": 1.1952286093343936,
                    "MagpieData minimum NdUnfilled": 0.0,
                    "MagpieData maximum NdUnfilled": 4.0,
                    "MagpieData range NdUnfilled": 4.0,
                    "MagpieData mean NdUnfilled": 2.714285714285714,
                    "MagpieData avg_dev NdUnfilled": 1.5510204081632653,
                    "MagpieData mode NdUnfilled": 4.0,
                    "MagpieData std_dev NdUnfilled": 2.3145502494313788,
                    "MagpieData minimum NfUnfilled": 0.0,
                    "MagpieData maximum NfUnfilled": 0.0,
                    "MagpieData range NfUnfilled": 0.0,
                    "MagpieData mean NfUnfilled": 0.0,
                    "MagpieData avg_dev NfUnfilled": 0.0,
                    "MagpieData mode NfUnfilled": 0.0,
                    "MagpieData std_dev NfUnfilled": 0.0,
                    "MagpieData minimum NUnfilled": 2.0,
                    "MagpieData maximum NUnfilled": 4.0,
                    "MagpieData range NUnfilled": 2.0,
                    "MagpieData mean NUnfilled": 3.2857142857142856,
                    "MagpieData avg_dev NUnfilled": 0.8163265306122449,
                    "MagpieData mode NUnfilled": 4.0,
                    "MagpieData std_dev NUnfilled": 1.164964745021435,
                    "MagpieData minimum GSvolume_pa": 9.105,
                    "MagpieData maximum GSvolume_pa": 10.73,
                    "MagpieData range GSvolume_pa": 1.625,
                    "MagpieData mean GSvolume_pa": 10.196428571428571,
                    "MagpieData avg_dev GSvolume_pa": 0.6236734693877553,
                    "MagpieData mode GSvolume_pa": 10.73,
                    "MagpieData std_dev GSvolume_pa": 0.9385608283811063,
                    "MagpieData minimum GSbandgap": 0.0,
                    "MagpieData maximum GSbandgap": 0.0,
                    "MagpieData range GSbandgap": 0.0,
                    "MagpieData mean GSbandgap": 0.0,
                    "MagpieData avg_dev GSbandgap": 0.0,
                    "MagpieData mode GSbandgap": 0.0,
                    "MagpieData std_dev GSbandgap": 0.0,
                    "MagpieData minimum GSmagmom": 0.0,
                    "MagpieData maximum GSmagmom": 2.1106628,
                    "MagpieData range GSmagmom": 2.1106628,
                    "MagpieData mean GSmagmom": 1.4273032,
                    "MagpieData avg_dev GSmagmom": 0.8156018285714285,
                    "MagpieData mode GSmagmom": 2.1106628,
                    "MagpieData std_dev GSmagmom": 1.220347481799049,
                    "MagpieData minimum SpaceGroupNumber": 12.0,
                    "MagpieData maximum SpaceGroupNumber": 229.0,
                    "MagpieData range SpaceGroupNumber": 217.0,
                    "MagpieData mean SpaceGroupNumber": 162.0,
                    "MagpieData avg_dev SpaceGroupNumber": 85.71428571428571,
                    "MagpieData mode SpaceGroupNumber": 229.0,
                    "MagpieData std_dev SpaceGroupNumber": 126.47134062703692
                }
            }
        }
    ],
    "lower_detection_limit_log_ppm": -10.81001868,
    "upper_detection_limit_log_ppm": -7.655116721,
    "probe_material": [
        {
            "substance_name": "carbofuran",
            "substance_type": "small molecule",
            "substance_descriptors": {
                "CID": 2566,
                "MolecularFormula": "C12H15NO3",
                "MolecularWeight": "221.25",
                "CanonicalSMILES": "CC1(CC2=C(O1)C(=CC=C2)OC(=O)NC)C",
                "IsomericSMILES": "CC1(CC2=C(O1)C(=CC=C2)OC(=O)NC)C",
                "InChI": "InChI=1S/C12H15NO3/c1-12(2)7-8-5-4-6-9(10(8)16-12)15-11(14)13-3/h4-6H,7H2,1-3H3,(H,13,14)",
                "InChIKey": "DUEPRVBVGDRKAG-UHFFFAOYSA-N",
                "IUPACName": "(2,2-dimethyl-3H-1-benzofuran-7-yl) N-methylcarbamate",
                "XLogP": 2.3,
                "ExactMass": "221.10519334",
                "MonoisotopicMass": "221.10519334",
                "TPSA": 47.6,
                "Complexity": 277,
                "Charge": 0,
                "HBondDonorCount": 1,
                "HBondAcceptorCount": 3,
                "RotatableBondCount": 2,
                "HeavyAtomCount": 16,
                "IsotopeAtomCount": 0,
                "AtomStereoCount": 0,
                "DefinedAtomStereoCount": 0,
                "UndefinedAtomStereoCount": 0,
                "BondStereoCount": 0,
                "DefinedBondStereoCount": 0,
                "UndefinedBondStereoCount": 0,
                "CovalentUnitCount": 1,
                "Volume3D": 172.2,
                "XStericQuadrupole3D": 5.69,
                "YStericQuadrupole3D": 3.03,
                "ZStericQuadrupole3D": 0.98,
                "FeatureAcceptorCount3D": 2,
                "FeatureDonorCount3D": 1,
                "FeatureAnionCount3D": 0,
                "FeatureCationCount3D": 0,
                "FeatureRingCount3D": 2,
                "FeatureHydrophobeCount3D": 1,
                "ConformerModelRMSD3D": 0.6,
                "EffectiveRotorCount3D": 3.6,
                "ConformerCount3D": 10,
                "Morgan_128": [
                    1,
                    0,
                    1,
                    0,
                    0,
                    0,
                    0,
                    0,
                    0,
                    0,
                    1,
                    0,
                    0,
                    0,
                    1,
                    1,
                    1,
                    0,
                    0,
                    0,
                    1,
                    0,
                    1,
                    0,
                    0,
                    0,
                    0,
                    0,
                    0,
                    0,
                    1,
                    0,
                    0,
                    1,
                    0,
                    0,
                    1,
                    0,
                    0,
                    1,
                    0,
                    0,
                    1,
                    0,
                    1,
                    0,
                    0,
                    0,
                    0,
                    0,
                    1,
                    0,
                    0,
                    1,
                    0,
                    1,
                    0,
                    0,
                    0,
                    0,
                    0,
                    0,
                    0,
                    0,
                    1,
                    1,
                    0,
                    0,
                    0,
                    0,
                    0,
                    0,
                    0,
                    0,
                    1,
                    0,
                    0,
                    0,
                    0,
                    1,
                    0,
                    1,
                    0,
                    0,
                    1,
                    0,
                    1,
                    0,
                    1,
                    1,
                    0,
                    0,
                    0,
                    1,
                    1,
                    0,
                    0,
                    1,
                    0,
                    0,
                    1,
                    0,
                    0,
                    0,
                    1,
                    0,
                    0,
                    0,
                    0,
                    0,
                    0,
                    0,
                    0,
                    0,
                    0,
                    0,
                    0,
                    1,
                    0,
                    0,
                    0,
                    0,
                    1,
                    0,
                    0,
                    1,
                    0,
                    0
                ]
            }
        }
    ],
    "test_operating_temperature_celsius": 27.5,
    "min_pH_when_testing": 7.9,
    "max_pH_when_testing": 7.9,
    "test_medium_electrolyte": [
        {
            "substance_name": "sodium chloride",
            "substance_type": "small molecule",
            "substance_descriptors": {
                "CID": 5234,
                "MolecularFormula": "ClNa",
                "MolecularWeight": "58.44",
                "CanonicalSMILES": "[Na+].[Cl-]",
                "IsomericSMILES": "[Na+].[Cl-]",
                "InChI": "InChI=1S/ClH.Na/h1H;/q;+1/p-1",
                "InChIKey": "FAPWRFPIFSIZLT-UHFFFAOYSA-M",
                "IUPACName": "sodium;chloride",
                "ExactMass": "57.9586220",
                "MonoisotopicMass": "57.9586220",
                "TPSA": 0,
                "Complexity": 2,
                "Charge": 0,
                "HBondDonorCount": 0,
                "HBondAcceptorCount": 1,
                "RotatableBondCount": 0,
                "HeavyAtomCount": 2,
                "IsotopeAtomCount": 0,
                "AtomStereoCount": 0,
                "DefinedAtomStereoCount": 0,
                "UndefinedAtomStereoCount": 0,
                "BondStereoCount": 0,
                "DefinedBondStereoCount": 0,
                "UndefinedBondStereoCount": 0,
                "CovalentUnitCount": 2,
                "ConformerCount3D": 0,
                "Morgan_128": [
                    0,
                    0,
                    0,
                    0,
                    0,
                    0,
                    0,
                    0,
                    0,
                    0,
                    0,
                    0,
                    0,
                    0,
                    0,
                    0,
                    0,
                    0,
                    0,
                    0,
                    0,
                    0,
                    0,
                    0,
                    0,
                    0,
                    0,
                    0,
                    0,
                    0,
                    0,
                    0,
                    0,
                    0,
                    0,
                    0,
                    0,
                    0,
                    0,
                    0,
                    0,
                    0,
                    0,
                    0,
                    0,
                    0,
                    0,
                    0,
                    0,
                    0,
                    0,
                    0,
                    0,
                    0,
                    0,
                    0,
                    0,
                    0,
                    0,
                    0,
                    0,
                    1,
                    0,
                    0,
                    0,
                    0,
                    0,
                    0,
                    0,
                    0,
                    0,
                    0,
                    0,
                    0,
                    1,
                    0,
                    0,
                    0,
                    0,
                    0,
                    0,
                    0,
                    0,
                    0,
                    0,
                    0,
                    0,
                    0,
                    0,
                    0,
                    0,
                    0,
                    0,
                    0,
                    0,
                    0,
                    0,
                    0,
                    0,
                    0,
                    0,
                    0,
                    0,
                    0,
                    0,
                    0,
                    0,
                    0,
                    0,
                    0,
                    0,
                    0,
                    0,
                    0,
                    0,
                    0,
                    0,
                    0,
                    0,
                    0,
                    0,
                    0,
                    0,
                    0,
                    0,
                    0,
                    0,
                    0
                ]
            }
        },
        {
            "substance_name": "potassium chloride",
            "substance_type": "small molecule",
            "substance_descriptors": {
                "CID": 4873,
                "MolecularFormula": "ClK",
                "MolecularWeight": "74.55",
                "CanonicalSMILES": "[Cl-].[K+]",
                "IsomericSMILES": "[Cl-].[K+]",
                "InChI": "InChI=1S/ClH.K/h1H;/q;+1/p-1",
                "InChIKey": "WCUXLLCKKVVCTQ-UHFFFAOYSA-M",
                "IUPACName": "potassium;chloride",
                "ExactMass": "73.9325592",
                "MonoisotopicMass": "73.9325592",
                "TPSA": 0,
                "Complexity": 2,
                "Charge": 0,
                "HBondDonorCount": 0,
                "HBondAcceptorCount": 1,
                "RotatableBondCount": 0,
                "HeavyAtomCount": 2,
                "IsotopeAtomCount": 0,
                "AtomStereoCount": 0,
                "DefinedAtomStereoCount": 0,
                "UndefinedAtomStereoCount": 0,
                "BondStereoCount": 0,
                "DefinedBondStereoCount": 0,
                "UndefinedBondStereoCount": 0,
                "CovalentUnitCount": 2,
                "ConformerCount3D": 0,
                "Morgan_128": [
                    0,
                    0,
                    0,
                    0,
                    0,
                    0,
                    0,
                    0,
                    0,
                    0,
                    0,
                    0,
                    0,
                    0,
                    0,
                    0,
                    0,
                    0,
                    0,
                    0,
                    0,
                    0,
                    0,
                    0,
                    0,
                    0,
                    0,
                    0,
                    0,
                    0,
                    0,
                    0,
                    0,
                    0,
                    0,
                    0,
                    0,
                    0,
                    0,
                    0,
                    0,
                    0,
                    0,
                    0,
                    0,
                    0,
                    0,
                    0,
                    0,
                    0,
                    0,
                    0,
                    0,
                    0,
                    0,
                    0,
                    0,
                    0,
                    0,
                    0,
                    0,
                    0,
                    0,
                    0,
                    0,
                    0,
                    0,
                    0,
                    0,
                    0,
                    0,
                    0,
                    0,
                    0,
                    1,
                    0,
                    0,
                    0,
                    0,
                    0,
                    0,
                    0,
                    0,
                    1,
                    0,
                    0,
                    0,
                    0,
                    0,
                    0,
                    0,
                    0,
                    0,
                    0,
                    0,
                    0,
                    0,
                    0,
                    0,
                    0,
                    0,
                    0,
                    0,
                    0,
                    0,
                    0,
                    0,
                    0,
                    0,
                    0,
                    0,
                    0,
                    0,
                    0,
                    0,
                    0,
                    0,
                    0,
                    0,
                    0,
                    0,
                    0,
                    0,
                    0,
                    0,
                    0,
                    0,
                    0
                ]
            }
        },
        {
            "substance_name": "disodium phosphate",
            "substance_type": "small molecule",
            "substance_descriptors": {
                "CID": 24203,
                "MolecularFormula": "HNa2O4P",
                "MolecularWeight": "141.959",
                "CanonicalSMILES": "OP(=O)([O-])[O-].[Na+].[Na+]",
                "IsomericSMILES": "OP(=O)([O-])[O-].[Na+].[Na+]",
                "InChI": "InChI=1S/2Na.H3O4P/c;;1-5(2,3)4/h;;(H3,1,2,3,4)/q2*+1;/p-2",
                "InChIKey": "BNIILDVGGAEEIG-UHFFFAOYSA-L",
                "IUPACName": "disodium;hydrogen phosphate",
                "ExactMass": "141.94078407",
                "MonoisotopicMass": "141.94078407",
                "TPSA": 83.4,
                "Complexity": 46,
                "Charge": 0,
                "HBondDonorCount": 1,
                "HBondAcceptorCount": 4,
                "RotatableBondCount": 0,
                "HeavyAtomCount": 7,
                "IsotopeAtomCount": 0,
                "AtomStereoCount": 0,
                "DefinedAtomStereoCount": 0,
                "UndefinedAtomStereoCount": 0,
                "BondStereoCount": 0,
                "DefinedBondStereoCount": 0,
                "UndefinedBondStereoCount": 0,
                "CovalentUnitCount": 3,
                "ConformerCount3D": 0,
                "Morgan_128": [
                    0,
                    0,
                    0,
                    0,
                    0,
                    0,
                    0,
                    0,
                    0,
                    0,
                    1,
                    0,
                    0,
                    0,
                    0,
                    0,
                    0,
                    0,
                    0,
                    0,
                    0,
                    0,
                    0,
                    0,
                    0,
                    0,
                    0,
                    0,
                    0,
                    0,
                    0,
                    0,
                    0,
                    0,
                    0,
                    0,
                    0,
                    0,
                    0,
                    1,
                    0,
                    0,
                    0,
                    0,
                    0,
                    0,
                    1,
                    0,
                    0,
                    0,
                    0,
                    1,
                    0,
                    0,
                    0,
                    0,
                    0,
                    0,
                    0,
                    0,
                    0,
                    1,
                    0,
                    0,
                    1,
                    0,
                    0,
                    0,
                    0,
                    0,
                    0,
                    0,
                    0,
                    0,
                    0,
                    1,
                    0,
                    0,
                    0,
                    0,
                    1,
                    0,
                    0,
                    0,
                    0,
                    0,
                    0,
                    0,
                    0,
                    0,
                    0,
                    0,
                    0,
                    0,
                    0,
                    0,
                    0,
                    0,
                    0,
                    0,
                    0,
                    0,
                    1,
                    0,
                    0,
                    0,
                    0,
                    0,
                    0,
                    0,
                    0,
                    0,
                    0,
                    0,
                    0,
                    0,
                    0,
                    0,
                    0,
                    0,
                    0,
                    0,
                    0,
                    0,
                    0,
                    0,
                    0,
                    0
                ]
            }
        },
        {
            "substance_name": "monopotassium phosphate",
            "substance_type": "small molecule",
            "substance_descriptors": {
                "CID": 516951,
                "MolecularFormula": "H2KO4P",
                "MolecularWeight": "136.086",
                "CanonicalSMILES": "OP(=O)(O)[O-].[K+]",
                "IsomericSMILES": "OP(=O)(O)[O-].[K+]",
                "InChI": "InChI=1S/K.H3O4P/c;1-5(2,3)4/h;(H3,1,2,3,4)/q+1;/p-1",
                "InChIKey": "GNSKLFRGEWLPPA-UHFFFAOYSA-M",
                "IUPACName": "potassium;dihydrogen phosphate",
                "ExactMass": "135.93277702",
                "MonoisotopicMass": "135.93277702",
                "TPSA": 80.6,
                "Complexity": 61,
                "Charge": 0,
                "HBondDonorCount": 2,
                "HBondAcceptorCount": 4,
                "RotatableBondCount": 0,
                "HeavyAtomCount": 6,
                "IsotopeAtomCount": 0,
                "AtomStereoCount": 0,
                "DefinedAtomStereoCount": 0,
                "UndefinedAtomStereoCount": 0,
                "BondStereoCount": 0,
                "DefinedBondStereoCount": 0,
                "UndefinedBondStereoCount": 0,
                "CovalentUnitCount": 2,
                "ConformerCount3D": 0,
                "Morgan_128": [
                    1,
                    0,
                    0,
                    0,
                    0,
                    0,
                    0,
                    0,
                    0,
                    0,
                    1,
                    0,
                    0,
                    0,
                    0,
                    0,
                    0,
                    0,
                    0,
                    0,
                    0,
                    0,
                    0,
                    0,
                    0,
                    0,
                    0,
                    0,
                    0,
                    0,
                    0,
                    0,
                    0,
                    0,
                    0,
                    0,
                    0,
                    0,
                    0,
                    1,
                    0,
                    0,
                    0,
                    0,
                    0,
                    0,
                    1,
                    0,
                    0,
                    0,
                    0,
                    1,
                    0,
                    0,
                    0,
                    0,
                    0,
                    0,
                    0,
                    0,
                    0,
                    0,
                    0,
                    0,
                    1,
                    0,
                    0,
                    0,
                    0,
                    0,
                    0,
                    0,
                    0,
                    0,
                    0,
                    1,
                    0,
                    0,
                    0,
                    0,
                    0,
                    0,
                    0,
                    1,
                    0,
                    0,
                    0,
                    0,
                    0,
                    0,
                    0,
                    0,
                    0,
                    0,
                    0,
                    0,
                    0,
                    0,
                    0,
                    0,
                    0,
                    0,
                    1,
                    0,
                    0,
                    0,
                    0,
                    0,
                    0,
                    0,
                    0,
                    0,
                    0,
                    0,
                    0,
                    0,
                    0,
                    0,
                    0,
                    0,
                    0,
                    0,
                    0,
                    0,
                    0,
                    0,
                    0,
                    0
                ]
            }
        },
        {
            "substance_name": "water",
            "substance_type": "small molecule",
            "substance_descriptors": {
                "CID": 962,
                "MolecularFormula": "H2O",
                "MolecularWeight": "18.015",
                "CanonicalSMILES": "O",
                "IsomericSMILES": "O",
                "InChI": "InChI=1S/H2O/h1H2",
                "InChIKey": "XLYOFNOQVPJJNP-UHFFFAOYSA-N",
                "IUPACName": "oxidane",
                "XLogP": -0.5,
                "ExactMass": "18.010564683",
                "MonoisotopicMass": "18.010564683",
                "TPSA": 1,
                "Complexity": 0,
                "Charge": 0,
                "HBondDonorCount": 1,
                "HBondAcceptorCount": 1,
                "RotatableBondCount": 0,
                "HeavyAtomCount": 1,
                "IsotopeAtomCount": 0,
                "AtomStereoCount": 0,
                "DefinedAtomStereoCount": 0,
                "UndefinedAtomStereoCount": 0,
                "BondStereoCount": 0,
                "DefinedBondStereoCount": 0,
                "UndefinedBondStereoCount": 0,
                "CovalentUnitCount": 1,
                "Volume3D": 14.7,
                "XStericQuadrupole3D": 0.49,
                "YStericQuadrupole3D": 0.49,
                "ZStericQuadrupole3D": 0.49,
                "FeatureAcceptorCount3D": 1,
                "FeatureDonorCount3D": 1,
                "FeatureAnionCount3D": 0,
                "FeatureCationCount3D": 0,
                "FeatureRingCount3D": 0,
                "FeatureHydrophobeCount3D": 0,
                "ConformerModelRMSD3D": 0.4,
                "EffectiveRotorCount3D": 0,
                "ConformerCount3D": 1,
                "Morgan_128": [
                    0,
                    0,
                    0,
                    0,
                    0,
                    0,
                    0,
                    0,
                    0,
                    0,
                    0,
                    0,
                    0,
                    0,
                    0,
                    0,
                    0,
                    0,
                    0,
                    0,
                    0,
                    0,
                    1,
                    0,
                    0,
                    0,
                    0,
                    0,
                    0,
                    0,
                    0,
                    0,
                    0,
                    0,
                    0,
                    0,
                    0,
                    0,
                    0,
                    0,
                    0,
                    0,
                    0,
                    0,
                    0,
                    0,
                    0,
                    0,
                    0,
                    0,
                    0,
                    0,
                    0,
                    0,
                    0,
                    0,
                    0,
                    0,
                    0,
                    0,
                    0,
                    0,
                    0,
                    0,
                    0,
                    0,
                    0,
                    0,
                    0,
                    0,
                    0,
                    0,
                    0,
                    0,
                    0,
                    0,
                    0,
                    0,
                    0,
                    0,
                    0,
                    0,
                    0,
                    0,
                    0,
                    0,
                    0,
                    0,
                    0,
                    0,
                    0,
                    0,
                    0,
                    0,
                    0,
                    0,
                    0,
                    0,
                    0,
                    0,
                    0,
                    0,
                    0,
                    0,
                    0,
                    0,
                    0,
                    0,
                    0,
                    0,
                    0,
                    0,
                    0,
                    0,
                    0,
                    0,
                    0,
                    0,
                    0,
                    0,
                    0,
                    0,
                    0,
                    0,
                    0,
                    0,
                    0,
                    0
                ]
            }
        }
    ],
    "LDL_ranking": 1.0,
    "UDL_ranking": 1.0,
    "LDL_category": "Very Low Detection (High Sensitivity)",
    "UDL_category": "Very Narrow Range (Low UDL)"
}