{
    "DOI": "10.1134/S1995078010050137",
    "sensor_type": "liquid",
    "detect_target": [
        {
            "substance_name": "patulin",
            "substance_type": "small molecule",
            "substance_descriptors": {
                "CID": 4696,
                "MolecularFormula": "C7H6O4",
                "MolecularWeight": "154.12",
                "CanonicalSMILES": "C1C=C2C(=CC(=O)O2)C(O1)O",
                "IsomericSMILES": "C1C=C2C(=CC(=O)O2)C(O1)O",
                "InChI": "InChI=1S/C7H6O4/c8-6-3-4-5(11-6)1-2-10-7(4)9/h1,3,7,9H,2H2",
                "InChIKey": "ZRWPUFFVAOMMNM-UHFFFAOYSA-N",
                "IUPACName": "4-hydroxy-4,6-dihydrofuro[3,2-c]pyran-2-one",
                "XLogP": -1,
                "ExactMass": "154.02660867",
                "MonoisotopicMass": "154.02660867",
                "TPSA": 55.8,
                "Complexity": 264,
                "Charge": 0,
                "HBondDonorCount": 1,
                "HBondAcceptorCount": 4,
                "RotatableBondCount": 0,
                "HeavyAtomCount": 11,
                "IsotopeAtomCount": 0,
                "AtomStereoCount": 1,
                "DefinedAtomStereoCount": 0,
                "UndefinedAtomStereoCount": 1,
                "BondStereoCount": 0,
                "DefinedBondStereoCount": 0,
                "UndefinedBondStereoCount": 0,
                "CovalentUnitCount": 1,
                "Volume3D": 110.8,
                "XStericQuadrupole3D": 3.57,
                "YStericQuadrupole3D": 1.62,
                "ZStericQuadrupole3D": 0.72,
                "FeatureAcceptorCount3D": 3,
                "FeatureDonorCount3D": 1,
                "FeatureAnionCount3D": 0,
                "FeatureCationCount3D": 0,
                "FeatureRingCount3D": 2,
                "FeatureHydrophobeCount3D": 0,
                "ConformerModelRMSD3D": 0.4,
                "EffectiveRotorCount3D": 0.8,
                "ConformerCount3D": 2,
                "Morgan_128": [
                    0,
                    0,
                    0,
                    0,
                    0,
                    0,
                    1,
                    0,
                    0,
                    1,
                    1,
                    0,
                    0,
                    0,
                    0,
                    0,
                    1,
                    0,
                    1,
                    1,
                    0,
                    1,
                    0,
                    1,
                    0,
                    0,
                    0,
                    1,
                    0,
                    0,
                    1,
                    0,
                    0,
                    0,
                    1,
                    0,
                    0,
                    1,
                    0,
                    1,
                    0,
                    0,
                    0,
                    0,
                    0,
                    0,
                    0,
                    0,
                    0,
                    0,
                    0,
                    0,
                    0,
                    0,
                    0,
                    0,
                    0,
                    0,
                    1,
                    0,
                    0,
                    0,
                    0,
                    0,
                    0,
                    0,
                    0,
                    0,
                    0,
                    0,
                    0,
                    0,
                    0,
                    0,
                    0,
                    0,
                    0,
                    0,
                    0,
                    0,
                    0,
                    1,
                    0,
                    0,
                    1,
                    0,
                    0,
                    0,
                    0,
                    0,
                    0,
                    0,
                    0,
                    1,
                    0,
                    0,
                    0,
                    0,
                    0,
                    0,
                    1,
                    0,
                    1,
                    0,
                    0,
                    1,
                    1,
                    0,
                    0,
                    0,
                    0,
                    0,
                    0,
                    0,
                    1,
                    0,
                    0,
                    1,
                    0,
                    0,
                    0,
                    0,
                    0,
                    1,
                    0,
                    0,
                    0,
                    0
                ]
            }
        }
    ],
    "lower_detection_limit_log_ppm": -2.0,
    "upper_detection_limit_log_ppm": -1.0,
    "probe_material": [
        {
            "substance_name": "ceric oxide",
            "substance_type": "inorganic solid",
            "substance_descriptors": {
                "Number of Elements": 2,
                "Element Types": [
                    "O",
                    "Ce"
                ],
                "Number of Atoms in Unit Cell": 3,
                "Lattice Parameter a (\u00c5)": "5.40972",
                "Lattice Parameter b (\u00c5)": "5.40972",
                "Lattice Parameter c (\u00c5)": "5.40972",
                "Lattice Angle alpha (degrees)": "90",
                "Lattice Angle beta (degrees)": "90",
                "Lattice Angle gamma (degrees)": "90",
                "Unit Cell Volume (\u00c5\u00b3)": 40.85964149792201,
                "Density (g/cm\u00b3)": 6.994759103664203,
                "Space Group Number": 225,
                "Band Gap (eV)": 1.8647,
                "Is Metallic (1/0)": 0,
                "Formation Energy per Atom (eV)": -3.760158946666666,
                "Energy Above Hull (eV/atom)": 0.0,
                "Energy per Atom (eV/atom)": -18.01413555,
                "Total Magnetization (\u03bcB)": 0.0,
                "Magnetic Ordering": "NM",
                "Bulk Modulus (GPa)": 170.992,
                "Shear Modulus (GPa)": 73.939,
                "Fermi Energy (eV)": 5.05743538,
                "Total Energy (eV)": -6.79123,
                "Crystal System": "cubic",
                "Magpie Descriptors": {
                    "MagpieData minimum Number": 8.0,
                    "MagpieData maximum Number": 58.0,
                    "MagpieData range Number": 50.0,
                    "MagpieData mean Number": 41.33333333333333,
                    "MagpieData avg_dev Number": 22.22222222222222,
                    "MagpieData mode Number": 58.0,
                    "MagpieData std_dev Number": 35.35533905932738,
                    "MagpieData minimum MendeleevNumber": 15.0,
                    "MagpieData maximum MendeleevNumber": 87.0,
                    "MagpieData range MendeleevNumber": 72.0,
                    "MagpieData mean MendeleevNumber": 39.0,
                    "MagpieData avg_dev MendeleevNumber": 32.0,
                    "MagpieData mode MendeleevNumber": 15.0,
                    "MagpieData std_dev MendeleevNumber": 50.91168824543142,
                    "MagpieData minimum AtomicWeight": 15.9994,
                    "MagpieData maximum AtomicWeight": 140.116,
                    "MagpieData range AtomicWeight": 124.11660000000002,
                    "MagpieData mean AtomicWeight": 98.74380000000001,
                    "MagpieData avg_dev AtomicWeight": 55.16293333333334,
                    "MagpieData mode AtomicWeight": 140.116,
                    "MagpieData std_dev AtomicWeight": 87.76368951781825,
                    "MagpieData minimum MeltingT": 54.8,
                    "MagpieData maximum MeltingT": 1071.0,
                    "MagpieData range MeltingT": 1016.2,
                    "MagpieData mean MeltingT": 732.2666666666667,
                    "MagpieData avg_dev MeltingT": 451.64444444444445,
                    "MagpieData mode MeltingT": 1071.0,
                    "MagpieData std_dev MeltingT": 718.5619110417696,
                    "MagpieData minimum Column": 3.0,
                    "MagpieData maximum Column": 16.0,
                    "MagpieData range Column": 13.0,
                    "MagpieData mean Column": 7.333333333333333,
                    "MagpieData avg_dev Column": 5.777777777777778,
                    "MagpieData mode Column": 3.0,
                    "MagpieData std_dev Column": 9.192388155425117,
                    "MagpieData minimum Row": 2.0,
                    "MagpieData maximum Row": 6.0,
                    "MagpieData range Row": 4.0,
                    "MagpieData mean Row": 4.666666666666667,
                    "MagpieData avg_dev Row": 1.7777777777777777,
                    "MagpieData mode Row": 6.0,
                    "MagpieData std_dev Row": 2.8284271247461903,
                    "MagpieData minimum CovalentRadius": 66.0,
                    "MagpieData maximum CovalentRadius": 204.0,
                    "MagpieData range CovalentRadius": 138.0,
                    "MagpieData mean CovalentRadius": 158.0,
                    "MagpieData avg_dev CovalentRadius": 61.33333333333333,
                    "MagpieData mode CovalentRadius": 204.0,
                    "MagpieData std_dev CovalentRadius": 97.58073580374356,
                    "MagpieData minimum Electronegativity": 1.12,
                    "MagpieData maximum Electronegativity": 3.44,
                    "MagpieData range Electronegativity": 2.32,
                    "MagpieData mean Electronegativity": 1.893333333333333,
                    "MagpieData avg_dev Electronegativity": 1.0311111111111109,
                    "MagpieData mode Electronegativity": 1.12,
                    "MagpieData std_dev Electronegativity": 1.6404877323527902,
                    "MagpieData minimum NsValence": 2.0,
                    "MagpieData maximum NsValence": 2.0,
                    "MagpieData range NsValence": 0.0,
                    "MagpieData mean NsValence": 2.0,
                    "MagpieData avg_dev NsValence": 0.0,
                    "MagpieData mode NsValence": 2.0,
                    "MagpieData std_dev NsValence": 0.0,
                    "MagpieData minimum NpValence": 0.0,
                    "MagpieData maximum NpValence": 4.0,
                    "MagpieData range NpValence": 4.0,
                    "MagpieData mean NpValence": 1.3333333333333333,
                    "MagpieData avg_dev NpValence": 1.7777777777777777,
                    "MagpieData mode NpValence": 0.0,
                    "MagpieData std_dev NpValence": 2.8284271247461903,
                    "MagpieData minimum NdValence": 0.0,
                    "MagpieData maximum NdValence": 1.0,
                    "MagpieData range NdValence": 1.0,
                    "MagpieData mean NdValence": 0.6666666666666666,
                    "MagpieData avg_dev NdValence": 0.4444444444444444,
                    "MagpieData mode NdValence": 1.0,
                    "MagpieData std_dev NdValence": 0.7071067811865476,
                    "MagpieData minimum NfValence": 0.0,
                    "MagpieData maximum NfValence": 1.0,
                    "MagpieData range NfValence": 1.0,
                    "MagpieData mean NfValence": 0.6666666666666666,
                    "MagpieData avg_dev NfValence": 0.4444444444444444,
                    "MagpieData mode NfValence": 1.0,
                    "MagpieData std_dev NfValence": 0.7071067811865476,
                    "MagpieData minimum NValence": 4.0,
                    "MagpieData maximum NValence": 6.0,
                    "MagpieData range NValence": 2.0,
                    "MagpieData mean NValence": 4.666666666666666,
                    "MagpieData avg_dev NValence": 0.8888888888888886,
                    "MagpieData mode NValence": 4.0,
                    "MagpieData std_dev NValence": 1.4142135623730951,
                    "MagpieData minimum NsUnfilled": 0.0,
                    "MagpieData maximum NsUnfilled": 0.0,
                    "MagpieData range NsUnfilled": 0.0,
                    "MagpieData mean NsUnfilled": 0.0,
                    "MagpieData avg_dev NsUnfilled": 0.0,
                    "MagpieData mode NsUnfilled": 0.0,
                    "MagpieData std_dev NsUnfilled": 0.0,
                    "MagpieData minimum NpUnfilled": 0.0,
                    "MagpieData maximum NpUnfilled": 2.0,
                    "MagpieData range NpUnfilled": 2.0,
                    "MagpieData mean NpUnfilled": 0.6666666666666666,
                    "MagpieData avg_dev NpUnfilled": 0.8888888888888888,
                    "MagpieData mode NpUnfilled": 0.0,
                    "MagpieData std_dev NpUnfilled": 1.4142135623730951,
                    "MagpieData minimum NdUnfilled": 0.0,
                    "MagpieData maximum NdUnfilled": 9.0,
                    "MagpieData range NdUnfilled": 9.0,
                    "MagpieData mean NdUnfilled": 6.0,
                    "MagpieData avg_dev NdUnfilled": 4.0,
                    "MagpieData mode NdUnfilled": 9.0,
                    "MagpieData std_dev NdUnfilled": 6.363961030678928,
                    "MagpieData minimum NfUnfilled": 0.0,
                    "MagpieData maximum NfUnfilled": 13.0,
                    "MagpieData range NfUnfilled": 13.0,
                    "MagpieData mean NfUnfilled": 8.666666666666666,
                    "MagpieData avg_dev NfUnfilled": 5.777777777777778,
                    "MagpieData mode NfUnfilled": 13.0,
                    "MagpieData std_dev NfUnfilled": 9.192388155425117,
                    "MagpieData minimum NUnfilled": 2.0,
                    "MagpieData maximum NUnfilled": 22.0,
                    "MagpieData range NUnfilled": 20.0,
                    "MagpieData mean NUnfilled": 15.333333333333332,
                    "MagpieData avg_dev NUnfilled": 8.88888888888889,
                    "MagpieData mode NUnfilled": 22.0,
                    "MagpieData std_dev NUnfilled": 14.142135623730951,
                    "MagpieData minimum GSvolume_pa": 9.105,
                    "MagpieData maximum GSvolume_pa": 37.24,
                    "MagpieData range GSvolume_pa": 28.135,
                    "MagpieData mean GSvolume_pa": 27.861666666666668,
                    "MagpieData avg_dev GSvolume_pa": 12.504444444444445,
                    "MagpieData mode GSvolume_pa": 37.24,
                    "MagpieData std_dev GSvolume_pa": 19.894449288683514,
                    "MagpieData minimum GSbandgap": 0.0,
                    "MagpieData maximum GSbandgap": 0.0,
                    "MagpieData range GSbandgap": 0.0,
                    "MagpieData mean GSbandgap": 0.0,
                    "MagpieData avg_dev GSbandgap": 0.0,
                    "MagpieData mode GSbandgap": 0.0,
                    "MagpieData std_dev GSbandgap": 0.0,
                    "MagpieData minimum GSmagmom": 0.0,
                    "MagpieData maximum GSmagmom": 0.0,
                    "MagpieData range GSmagmom": 0.0,
                    "MagpieData mean GSmagmom": 0.0,
                    "MagpieData avg_dev GSmagmom": 0.0,
                    "MagpieData mode GSmagmom": 0.0,
                    "MagpieData std_dev GSmagmom": 0.0,
                    "MagpieData minimum SpaceGroupNumber": 12.0,
                    "MagpieData maximum SpaceGroupNumber": 194.0,
                    "MagpieData range SpaceGroupNumber": 182.0,
                    "MagpieData mean SpaceGroupNumber": 133.33333333333331,
                    "MagpieData avg_dev SpaceGroupNumber": 80.88888888888889,
                    "MagpieData mode SpaceGroupNumber": 194.0,
                    "MagpieData std_dev SpaceGroupNumber": 128.69343417595164
                }
            }
        }
    ],
    "test_operating_temperature_celsius": 23.75,
    "min_pH_when_testing": 6.5,
    "max_pH_when_testing": 6.5,
    "test_medium_electrolyte": [
        {
            "substance_name": "water",
            "substance_type": "small molecule",
            "substance_descriptors": {
                "CID": 962,
                "MolecularFormula": "H2O",
                "MolecularWeight": "18.015",
                "CanonicalSMILES": "O",
                "IsomericSMILES": "O",
                "InChI": "InChI=1S/H2O/h1H2",
                "InChIKey": "XLYOFNOQVPJJNP-UHFFFAOYSA-N",
                "IUPACName": "oxidane",
                "XLogP": -0.5,
                "ExactMass": "18.010564683",
                "MonoisotopicMass": "18.010564683",
                "TPSA": 1,
                "Complexity": 0,
                "Charge": 0,
                "HBondDonorCount": 1,
                "HBondAcceptorCount": 1,
                "RotatableBondCount": 0,
                "HeavyAtomCount": 1,
                "IsotopeAtomCount": 0,
                "AtomStereoCount": 0,
                "DefinedAtomStereoCount": 0,
                "UndefinedAtomStereoCount": 0,
                "BondStereoCount": 0,
                "DefinedBondStereoCount": 0,
                "UndefinedBondStereoCount": 0,
                "CovalentUnitCount": 1,
                "Volume3D": 14.7,
                "XStericQuadrupole3D": 0.49,
                "YStericQuadrupole3D": 0.49,
                "ZStericQuadrupole3D": 0.49,
                "FeatureAcceptorCount3D": 1,
                "FeatureDonorCount3D": 1,
                "FeatureAnionCount3D": 0,
                "FeatureCationCount3D": 0,
                "FeatureRingCount3D": 0,
                "FeatureHydrophobeCount3D": 0,
                "ConformerModelRMSD3D": 0.4,
                "EffectiveRotorCount3D": 0,
                "ConformerCount3D": 1,
                "Morgan_128": [
                    0,
                    0,
                    0,
                    0,
                    0,
                    0,
                    0,
                    0,
                    0,
                    0,
                    0,
                    0,
                    0,
                    0,
                    0,
                    0,
                    0,
                    0,
                    0,
                    0,
                    0,
                    0,
                    1,
                    0,
                    0,
                    0,
                    0,
                    0,
                    0,
                    0,
                    0,
                    0,
                    0,
                    0,
                    0,
                    0,
                    0,
                    0,
                    0,
                    0,
                    0,
                    0,
                    0,
                    0,
                    0,
                    0,
                    0,
                    0,
                    0,
                    0,
                    0,
                    0,
                    0,
                    0,
                    0,
                    0,
                    0,
                    0,
                    0,
                    0,
                    0,
                    0,
                    0,
                    0,
                    0,
                    0,
                    0,
                    0,
                    0,
                    0,
                    0,
                    0,
                    0,
                    0,
                    0,
                    0,
                    0,
                    0,
                    0,
                    0,
                    0,
                    0,
                    0,
                    0,
                    0,
                    0,
                    0,
                    0,
                    0,
                    0,
                    0,
                    0,
                    0,
                    0,
                    0,
                    0,
                    0,
                    0,
                    0,
                    0,
                    0,
                    0,
                    0,
                    0,
                    0,
                    0,
                    0,
                    0,
                    0,
                    0,
                    0,
                    0,
                    0,
                    0,
                    0,
                    0,
                    0,
                    0,
                    0,
                    0,
                    0,
                    0,
                    0,
                    0,
                    0,
                    0,
                    0,
                    0
                ]
            }
        }
    ],
    "LDL_ranking": 1.0,
    "UDL_ranking": 1.0,
    "LDL_category": "Moderate Detection",
    "UDL_category": "Low UDL Range"
}