{
    "DOI": "10.1039/C8TC02635A",
    "sensor_type": "gas",
    "detect_target": [
        {
            "substance_name": "nitrogen dioxide",
            "substance_type": "small molecule",
            "substance_descriptors": {
                "CID": 3032552,
                "MolecularFormula": "NO2",
                "MolecularWeight": "46.006",
                "CanonicalSMILES": "N(=O)[O]",
                "IsomericSMILES": "N(=O)[O]",
                "InChI": "InChI=1S/NO2/c2-1-3",
                "InChIKey": "JCXJVPUVTGWSNB-UHFFFAOYSA-N",
                "XLogP": -0.3,
                "ExactMass": "45.992903243",
                "MonoisotopicMass": "45.992903243",
                "TPSA": 30.4,
                "Complexity": 7,
                "Charge": 0,
                "HBondDonorCount": 0,
                "HBondAcceptorCount": 2,
                "RotatableBondCount": 0,
                "HeavyAtomCount": 3,
                "IsotopeAtomCount": 0,
                "AtomStereoCount": 0,
                "DefinedAtomStereoCount": 0,
                "UndefinedAtomStereoCount": 0,
                "BondStereoCount": 0,
                "DefinedBondStereoCount": 0,
                "UndefinedBondStereoCount": 0,
                "CovalentUnitCount": 1,
                "ConformerCount3D": 0,
                "Morgan_128": [
                    0,
                    0,
                    0,
                    0,
                    0,
                    0,
                    0,
                    0,
                    0,
                    0,
                    1,
                    0,
                    1,
                    0,
                    0,
                    0,
                    0,
                    0,
                    0,
                    0,
                    0,
                    0,
                    0,
                    0,
                    0,
                    0,
                    0,
                    0,
                    0,
                    0,
                    0,
                    0,
                    0,
                    0,
                    0,
                    0,
                    0,
                    0,
                    0,
                    0,
                    0,
                    0,
                    0,
                    0,
                    0,
                    0,
                    0,
                    0,
                    0,
                    0,
                    0,
                    0,
                    1,
                    0,
                    0,
                    0,
                    0,
                    0,
                    0,
                    0,
                    0,
                    0,
                    0,
                    0,
                    0,
                    0,
                    0,
                    0,
                    0,
                    0,
                    0,
                    0,
                    0,
                    0,
                    0,
                    0,
                    0,
                    0,
                    0,
                    0,
                    0,
                    0,
                    0,
                    1,
                    0,
                    1,
                    0,
                    0,
                    0,
                    0,
                    0,
                    0,
                    0,
                    0,
                    0,
                    0,
                    0,
                    0,
                    0,
                    0,
                    0,
                    0,
                    0,
                    0,
                    0,
                    0,
                    0,
                    0,
                    0,
                    0,
                    0,
                    0,
                    0,
                    0,
                    0,
                    0,
                    0,
                    0,
                    0,
                    0,
                    0,
                    0,
                    0,
                    0,
                    0,
                    0,
                    0,
                    0
                ]
            }
        }
    ],
    "lower_detection_limit_log_ppm": 1.84509804,
    "upper_detection_limit_log_ppm": 2.544068044,
    "probe_material": [
        {
            "substance_name": "molybdenum ditelluride",
            "substance_type": "inorganic solid",
            "substance_descriptors": {
                "Number of Elements": 2,
                "Element Types": [
                    "Mo",
                    "Te"
                ],
                "Number of Atoms in Unit Cell": 6,
                "Lattice Parameter a (\u00c5)": "3.5182",
                "Lattice Parameter b (\u00c5)": "3.5182",
                "Lattice Parameter c (\u00c5)": "13.9736",
                "Lattice Angle alpha (degrees)": "90",
                "Lattice Angle beta (degrees)": "90",
                "Lattice Angle gamma (degrees)": "120",
                "Unit Cell Volume (\u00c5\u00b3)": 161.280150965677,
                "Density (g/cm\u00b3)": 7.23066892428707,
                "Space Group Number": 194,
                "Band Gap (eV)": 0.8632999999999997,
                "Is Metallic (1/0)": 0,
                "Formation Energy per Atom (eV)": -0.30737176666666716,
                "Energy Above Hull (eV/atom)": 0.0,
                "Energy per Atom (eV/atom)": -25.942847786666665,
                "Total Magnetization (\u03bcB)": 0.0,
                "Magnetic Ordering": "NM",
                "Bulk Modulus (GPa)": 16.944,
                "Shear Modulus (GPa)": 14.025,
                "Fermi Energy (eV)": 6.39169599,
                "Total Energy (eV)": -3.70715,
                "Crystal System": "hexagonal",
                "Magpie Descriptors": {
                    "MagpieData minimum Number": 42.0,
                    "MagpieData maximum Number": 52.0,
                    "MagpieData range Number": 10.0,
                    "MagpieData mean Number": 45.33333333333333,
                    "MagpieData avg_dev Number": 4.444444444444443,
                    "MagpieData mode Number": 42.0,
                    "MagpieData std_dev Number": 7.0710678118654755,
                    "MagpieData minimum MendeleevNumber": 50.0,
                    "MagpieData maximum MendeleevNumber": 90.0,
                    "MagpieData range MendeleevNumber": 40.0,
                    "MagpieData mean MendeleevNumber": 63.33333333333333,
                    "MagpieData avg_dev MendeleevNumber": 17.777777777777775,
                    "MagpieData mode MendeleevNumber": 50.0,
                    "MagpieData std_dev MendeleevNumber": 28.284271247461902,
                    "MagpieData minimum AtomicWeight": 95.96,
                    "MagpieData maximum AtomicWeight": 127.6,
                    "MagpieData range AtomicWeight": 31.64,
                    "MagpieData mean AtomicWeight": 106.50666666666666,
                    "MagpieData avg_dev AtomicWeight": 14.062222222222221,
                    "MagpieData mode AtomicWeight": 95.96,
                    "MagpieData std_dev AtomicWeight": 22.37285855674236,
                    "MagpieData minimum MeltingT": 722.66,
                    "MagpieData maximum MeltingT": 2896.0,
                    "MagpieData range MeltingT": 2173.34,
                    "MagpieData mean MeltingT": 2171.5533333333333,
                    "MagpieData avg_dev MeltingT": 965.9288888888889,
                    "MagpieData mode MeltingT": 2896.0,
                    "MagpieData std_dev MeltingT": 1536.7834518239713,
                    "MagpieData minimum Column": 6.0,
                    "MagpieData maximum Column": 16.0,
                    "MagpieData range Column": 10.0,
                    "MagpieData mean Column": 9.333333333333332,
                    "MagpieData avg_dev Column": 4.444444444444444,
                    "MagpieData mode Column": 6.0,
                    "MagpieData std_dev Column": 7.0710678118654755,
                    "MagpieData minimum Row": 5.0,
                    "MagpieData maximum Row": 5.0,
                    "MagpieData range Row": 0.0,
                    "MagpieData mean Row": 5.0,
                    "MagpieData avg_dev Row": 0.0,
                    "MagpieData mode Row": 5.0,
                    "MagpieData std_dev Row": 0.0,
                    "MagpieData minimum CovalentRadius": 138.0,
                    "MagpieData maximum CovalentRadius": 154.0,
                    "MagpieData range CovalentRadius": 16.0,
                    "MagpieData mean CovalentRadius": 148.66666666666666,
                    "MagpieData avg_dev CovalentRadius": 7.111111111111114,
                    "MagpieData mode CovalentRadius": 154.0,
                    "MagpieData std_dev CovalentRadius": 11.313708498984761,
                    "MagpieData minimum Electronegativity": 2.1,
                    "MagpieData maximum Electronegativity": 2.16,
                    "MagpieData range Electronegativity": 0.06000000000000005,
                    "MagpieData mean Electronegativity": 2.1399999999999997,
                    "MagpieData avg_dev Electronegativity": 0.02666666666666684,
                    "MagpieData mode Electronegativity": 2.16,
                    "MagpieData std_dev Electronegativity": 0.04242640687119289,
                    "MagpieData minimum NsValence": 1.0,
                    "MagpieData maximum NsValence": 2.0,
                    "MagpieData range NsValence": 1.0,
                    "MagpieData mean NsValence": 1.3333333333333333,
                    "MagpieData avg_dev NsValence": 0.4444444444444444,
                    "MagpieData mode NsValence": 1.0,
                    "MagpieData std_dev NsValence": 0.7071067811865476,
                    "MagpieData minimum NpValence": 0.0,
                    "MagpieData maximum NpValence": 4.0,
                    "MagpieData range NpValence": 4.0,
                    "MagpieData mean NpValence": 1.3333333333333333,
                    "MagpieData avg_dev NpValence": 1.7777777777777777,
                    "MagpieData mode NpValence": 0.0,
                    "MagpieData std_dev NpValence": 2.8284271247461903,
                    "MagpieData minimum NdValence": 5.0,
                    "MagpieData maximum NdValence": 10.0,
                    "MagpieData range NdValence": 5.0,
                    "MagpieData mean NdValence": 6.666666666666666,
                    "MagpieData avg_dev NdValence": 2.222222222222222,
                    "MagpieData mode NdValence": 5.0,
                    "MagpieData std_dev NdValence": 3.5355339059327378,
                    "MagpieData minimum NfValence": 0.0,
                    "MagpieData maximum NfValence": 0.0,
                    "MagpieData range NfValence": 0.0,
                    "MagpieData mean NfValence": 0.0,
                    "MagpieData avg_dev NfValence": 0.0,
                    "MagpieData mode NfValence": 0.0,
                    "MagpieData std_dev NfValence": 0.0,
                    "MagpieData minimum NValence": 6.0,
                    "MagpieData maximum NValence": 16.0,
                    "MagpieData range NValence": 10.0,
                    "MagpieData mean NValence": 9.333333333333332,
                    "MagpieData avg_dev NValence": 4.444444444444444,
                    "MagpieData mode NValence": 6.0,
                    "MagpieData std_dev NValence": 7.0710678118654755,
                    "MagpieData minimum NsUnfilled": 0.0,
                    "MagpieData maximum NsUnfilled": 1.0,
                    "MagpieData range NsUnfilled": 1.0,
                    "MagpieData mean NsUnfilled": 0.6666666666666666,
                    "MagpieData avg_dev NsUnfilled": 0.4444444444444444,
                    "MagpieData mode NsUnfilled": 1.0,
                    "MagpieData std_dev NsUnfilled": 0.7071067811865476,
                    "MagpieData minimum NpUnfilled": 0.0,
                    "MagpieData maximum NpUnfilled": 2.0,
                    "MagpieData range NpUnfilled": 2.0,
                    "MagpieData mean NpUnfilled": 0.6666666666666666,
                    "MagpieData avg_dev NpUnfilled": 0.8888888888888888,
                    "MagpieData mode NpUnfilled": 0.0,
                    "MagpieData std_dev NpUnfilled": 1.4142135623730951,
                    "MagpieData minimum NdUnfilled": 0.0,
                    "MagpieData maximum NdUnfilled": 5.0,
                    "MagpieData range NdUnfilled": 5.0,
                    "MagpieData mean NdUnfilled": 3.333333333333333,
                    "MagpieData avg_dev NdUnfilled": 2.2222222222222223,
                    "MagpieData mode NdUnfilled": 5.0,
                    "MagpieData std_dev NdUnfilled": 3.5355339059327378,
                    "MagpieData minimum NfUnfilled": 0.0,
                    "MagpieData maximum NfUnfilled": 0.0,
                    "MagpieData range NfUnfilled": 0.0,
                    "MagpieData mean NfUnfilled": 0.0,
                    "MagpieData avg_dev NfUnfilled": 0.0,
                    "MagpieData mode NfUnfilled": 0.0,
                    "MagpieData std_dev NfUnfilled": 0.0,
                    "MagpieData minimum NUnfilled": 2.0,
                    "MagpieData maximum NUnfilled": 6.0,
                    "MagpieData range NUnfilled": 4.0,
                    "MagpieData mean NUnfilled": 4.666666666666667,
                    "MagpieData avg_dev NUnfilled": 1.7777777777777777,
                    "MagpieData mode NUnfilled": 6.0,
                    "MagpieData std_dev NUnfilled": 2.8284271247461903,
                    "MagpieData minimum GSvolume_pa": 15.69,
                    "MagpieData maximum GSvolume_pa": 34.7633333333,
                    "MagpieData range GSvolume_pa": 19.0733333333,
                    "MagpieData mean GSvolume_pa": 22.04777777776666,
                    "MagpieData avg_dev GSvolume_pa": 8.47703703702222,
                    "MagpieData mode GSvolume_pa": 15.69,
                    "MagpieData std_dev GSvolume_pa": 13.486883339807843,
                    "MagpieData minimum GSbandgap": 0.0,
                    "MagpieData maximum GSbandgap": 0.464,
                    "MagpieData range GSbandgap": 0.464,
                    "MagpieData mean GSbandgap": 0.15466666666666667,
                    "MagpieData avg_dev GSbandgap": 0.20622222222222222,
                    "MagpieData mode GSbandgap": 0.0,
                    "MagpieData std_dev GSbandgap": 0.32809754647055805,
                    "MagpieData minimum GSmagmom": 0.0,
                    "MagpieData maximum GSmagmom": 0.0,
                    "MagpieData range GSmagmom": 0.0,
                    "MagpieData mean GSmagmom": 0.0,
                    "MagpieData avg_dev GSmagmom": 0.0,
                    "MagpieData mode GSmagmom": 0.0,
                    "MagpieData std_dev GSmagmom": 0.0,
                    "MagpieData minimum SpaceGroupNumber": 152.0,
                    "MagpieData maximum SpaceGroupNumber": 229.0,
                    "MagpieData range SpaceGroupNumber": 77.0,
                    "MagpieData mean SpaceGroupNumber": 203.33333333333331,
                    "MagpieData avg_dev SpaceGroupNumber": 34.22222222222223,
                    "MagpieData mode SpaceGroupNumber": 229.0,
                    "MagpieData std_dev SpaceGroupNumber": 54.44722215136416
                }
            }
        }
    ],
    "test_operating_temperature_celsius": 26.25,
    "min_pH_when_testing": -1.0,
    "max_pH_when_testing": -1.0,
    "test_medium_electrolyte": [
        {
            "substance_name": "nitrogen",
            "substance_type": "small molecule",
            "substance_descriptors": {
                "CID": 947,
                "MolecularFormula": "N2",
                "MolecularWeight": "28.014",
                "CanonicalSMILES": "N#N",
                "IsomericSMILES": "N#N",
                "InChI": "InChI=1S/N2/c1-2",
                "InChIKey": "IJGRMHOSHXDMSA-UHFFFAOYSA-N",
                "IUPACName": "molecular nitrogen",
                "XLogP": 0.1,
                "ExactMass": "28.006148008",
                "MonoisotopicMass": "28.006148008",
                "TPSA": 47.6,
                "Complexity": 8,
                "Charge": 0,
                "HBondDonorCount": 0,
                "HBondAcceptorCount": 2,
                "RotatableBondCount": 0,
                "HeavyAtomCount": 2,
                "IsotopeAtomCount": 0,
                "AtomStereoCount": 0,
                "DefinedAtomStereoCount": 0,
                "UndefinedAtomStereoCount": 0,
                "BondStereoCount": 0,
                "DefinedBondStereoCount": 0,
                "UndefinedBondStereoCount": 0,
                "CovalentUnitCount": 1,
                "Volume3D": 23.1,
                "XStericQuadrupole3D": 0.82,
                "YStericQuadrupole3D": 0.51,
                "ZStericQuadrupole3D": 0.51,
                "FeatureAcceptorCount3D": 0,
                "FeatureDonorCount3D": 0,
                "FeatureAnionCount3D": 0,
                "FeatureCationCount3D": 0,
                "FeatureRingCount3D": 0,
                "FeatureHydrophobeCount3D": 0,
                "ConformerModelRMSD3D": 0.4,
                "EffectiveRotorCount3D": 0,
                "ConformerCount3D": 1,
                "Morgan_128": [
                    0,
                    0,
                    0,
                    0,
                    0,
                    0,
                    0,
                    0,
                    0,
                    0,
                    0,
                    0,
                    0,
                    0,
                    0,
                    0,
                    0,
                    0,
                    0,
                    0,
                    0,
                    0,
                    0,
                    0,
                    0,
                    0,
                    0,
                    0,
                    0,
                    0,
                    0,
                    0,
                    0,
                    0,
                    0,
                    0,
                    0,
                    0,
                    0,
                    0,
                    0,
                    0,
                    0,
                    0,
                    0,
                    0,
                    0,
                    0,
                    0,
                    0,
                    0,
                    0,
                    0,
                    0,
                    0,
                    0,
                    0,
                    0,
                    0,
                    0,
                    0,
                    0,
                    0,
                    0,
                    0,
                    0,
                    0,
                    0,
                    0,
                    0,
                    0,
                    0,
                    0,
                    0,
                    0,
                    0,
                    1,
                    0,
                    0,
                    0,
                    0,
                    0,
                    0,
                    0,
                    0,
                    0,
                    0,
                    0,
                    0,
                    0,
                    0,
                    0,
                    0,
                    0,
                    0,
                    0,
                    0,
                    0,
                    0,
                    0,
                    0,
                    0,
                    0,
                    0,
                    1,
                    0,
                    0,
                    0,
                    0,
                    0,
                    0,
                    0,
                    0,
                    0,
                    0,
                    0,
                    0,
                    0,
                    0,
                    0,
                    0,
                    0,
                    0,
                    0,
                    0,
                    0,
                    0,
                    0
                ]
            }
        }
    ],
    "LDL_ranking": 2.0,
    "UDL_ranking": 1.0,
    "LDL_category": "Very High Detection (Low Sensitivity)",
    "UDL_category": "Moderate UDL Range"
}