{
    "DOI": "10.1088/0957-4484/26/12/125502",
    "sensor_type": "liquid",
    "detect_target": [
        {
            "substance_name": "poly-l-lysine",
            "substance_type": "polymer",
            "substance_descriptors": {
                "mol_weight": 632.98,
                "exact_mol_weight": 632.567652784,
                "num_h_donors": 8,
                "num_h_acceptors": 8,
                "logP": 2.5600000000000076,
                "tpsa": 220.48000000000002,
                "num_rotatable_bonds": 20,
                "fraction_csp3": 0.875,
                "labute_asa": 269.2750499573702,
                "peoe_vsa": [
                    44.20182432467407,
                    19.178148736287287,
                    0.0,
                    0.0,
                    0.0,
                    104.74480827387464,
                    25.683286491704038,
                    28.19068793070876,
                    24.167363316591842,
                    0.0,
                    0.0,
                    23.628718917406022,
                    0.0,
                    0.0
                ],
                "peoe_vsa_summary": {
                    "vsa_sum": 269.79483799124665,
                    "vsa_mean": 19.271059856517617,
                    "vsa_std": 27.633531584158973
                },
                "smr_vsa": [
                    19.178148736287287,
                    0.0,
                    21.267154416025324,
                    22.93466990864874,
                    154.5954580821705,
                    28.19068793070876,
                    0.0,
                    0.0,
                    0.0,
                    23.628718917406022
                ],
                "smr_vsa_summary": {
                    "vsa_sum": 269.79483799124665,
                    "vsa_mean": 26.979483799124665,
                    "vsa_std": 43.95446936589398
                },
                "slogp_vsa": [
                    44.20182432467407,
                    75.98677016470661,
                    19.178148736287287,
                    0.0,
                    130.42809476557866,
                    0.0,
                    0.0,
                    0.0,
                    0.0,
                    0.0,
                    0.0,
                    0.0
                ],
                "slogp_vsa_summary": {
                    "vsa_sum": 269.7948379912466,
                    "vsa_mean": 22.482903165937216,
                    "vsa_std": 39.83435346280509
                },
                "kappa1": 48.62016969375282,
                "kappa2": 36.909456441105334,
                "kappa3": 34.21301419590403,
                "chi0": 29.565503814357214,
                "chi1": 16.765950739241955,
                "chi0n": 29.565503814357214,
                "chi1n": 16.765950739241955,
                "chi2n": 10.866103032746416,
                "chi0v": 29.565503814357214,
                "chi1v": 16.765950739241955,
                "chi2v": 10.866103032746416,
                "num_rings": 0,
                "num_aromatic_rings": 0,
                "num_aliphatic_rings": 0,
                "num_saturated_rings": 0,
                "num_heteroatoms": 12,
                "num_spiro_atoms": 0,
                "num_bridgehead_atoms": 0,
                "phi": 0.09296777395133805,
                "morgan_fp_128": [
                    1,
                    1,
                    0,
                    1,
                    0,
                    0,
                    0,
                    0,
                    0,
                    0,
                    1,
                    0,
                    0,
                    0,
                    0,
                    0,
                    0,
                    0,
                    1,
                    1,
                    0,
                    0,
                    1,
                    0,
                    0,
                    0,
                    1,
                    0,
                    1,
                    0,
                    0,
                    0,
                    0,
                    1,
                    0,
                    0,
                    1,
                    0,
                    1,
                    1,
                    0,
                    0,
                    0,
                    0,
                    0,
                    0,
                    0,
                    0,
                    0,
                    0,
                    0,
                    0,
                    0,
                    0,
                    0,
                    0,
                    0,
                    1,
                    0,
                    0,
                    0,
                    1,
                    0,
                    1,
                    0,
                    0,
                    0,
                    0,
                    0,
                    0,
                    0,
                    0,
                    0,
                    0,
                    0,
                    0,
                    0,
                    0,
                    0,
                    1,
                    1,
                    0,
                    0,
                    0,
                    0,
                    0,
                    0,
                    0,
                    0,
                    1,
                    0,
                    0,
                    0,
                    0,
                    1,
                    0,
                    0,
                    0,
                    0,
                    1,
                    0,
                    0,
                    0,
                    0,
                    0,
                    0,
                    0,
                    0,
                    0,
                    0,
                    0,
                    0,
                    0,
                    0,
                    0,
                    0,
                    0,
                    0,
                    0,
                    1,
                    0,
                    0,
                    1,
                    0,
                    0,
                    1,
                    0,
                    0
                ],
                "maccs_fp": [
                    0,
                    0,
                    0,
                    0,
                    0,
                    0,
                    0,
                    0,
                    0,
                    0,
                    0,
                    0,
                    0,
                    0,
                    0,
                    0,
                    0,
                    0,
                    0,
                    0,
                    0,
                    0,
                    0,
                    0,
                    0,
                    0,
                    0,
                    0,
                    0,
                    0,
                    0,
                    0,
                    0,
                    0,
                    0,
                    0,
                    0,
                    0,
                    0,
                    0,
                    0,
                    0,
                    0,
                    0,
                    0,
                    0,
                    0,
                    0,
                    0,
                    0,
                    0,
                    0,
                    0,
                    0,
                    1,
                    0,
                    0,
                    0,
                    0,
                    0,
                    0,
                    0,
                    0,
                    0,
                    0,
                    0,
                    0,
                    0,
                    0,
                    0,
                    0,
                    0,
                    0,
                    0,
                    0,
                    0,
                    0,
                    0,
                    0,
                    1,
                    0,
                    0,
                    0,
                    0,
                    1,
                    0,
                    0,
                    0,
                    0,
                    0,
                    1,
                    1,
                    1,
                    1,
                    0,
                    1,
                    0,
                    0,
                    0,
                    0,
                    0,
                    0,
                    0,
                    0,
                    1,
                    0,
                    0,
                    0,
                    1,
                    0,
                    1,
                    1,
                    0,
                    0,
                    1,
                    1,
                    1,
                    1,
                    1,
                    0,
                    0,
                    0,
                    0,
                    0,
                    0,
                    0,
                    0,
                    0,
                    0,
                    1,
                    0,
                    1,
                    0,
                    0,
                    0,
                    0,
                    1,
                    0,
                    0,
                    0,
                    1,
                    1,
                    1,
                    0,
                    0,
                    0,
                    1,
                    1,
                    0,
                    1,
                    0,
                    1,
                    0,
                    0,
                    1,
                    1,
                    1,
                    0,
                    1,
                    1,
                    1,
                    1,
                    0,
                    0,
                    1,
                    0,
                    1
                ]
            }
        }
    ],
    "lower_detection_limit_log_ppm": 1.041392685,
    "upper_detection_limit_log_ppm": 2.763427994,
    "probe_material": [
        {
            "substance_name": "graphene",
            "substance_type": "inorganic solid",
            "substance_descriptors": {
                "Number of Elements": 1,
                "Element Types": [
                    "C"
                ],
                "Number of Atoms in Unit Cell": 2,
                "Lattice Parameter a (\u00c5)": "4.89",
                "Lattice Parameter b (\u00c5)": "4.89",
                "Lattice Parameter c (\u00c5)": "3.88",
                "Lattice Angle alpha (degrees)": "90",
                "Lattice Angle beta (degrees)": "90",
                "Lattice Angle gamma (degrees)": "120",
                "Unit Cell Volume (\u00c5\u00b3)": 44.527298939160254,
                "Density (g/cm\u00b3)": 0.8958206332912027,
                "Space Group Number": 191,
                "Band Gap (eV)": 9.999999999998899e-05,
                "Is Metallic (1/0)": 0,
                "Formation Energy per Atom (eV)": 0.009136742499999073,
                "Energy Above Hull (eV/atom)": 0.009136742499999073,
                "Energy per Atom (eV/atom)": -9.21952875,
                "Total Magnetization (\u03bcB)": 0.0,
                "Magnetic Ordering": "NM",
                "Bulk Modulus (GPa)": 265.14,
                "Shear Modulus (GPa)": 205.09,
                "Fermi Energy (eV)": -1.24547809,
                "Total Energy (eV)": -8.01439,
                "Crystal System": "hexagonal",
                "Magpie Descriptors": {
                    "MagpieData minimum Number": 6.0,
                    "MagpieData maximum Number": 6.0,
                    "MagpieData range Number": 0.0,
                    "MagpieData mean Number": 6.0,
                    "MagpieData avg_dev Number": 0.0,
                    "MagpieData mode Number": 6.0,
                    "MagpieData std_dev Number": 0,
                    "MagpieData minimum MendeleevNumber": 77.0,
                    "MagpieData maximum MendeleevNumber": 77.0,
                    "MagpieData range MendeleevNumber": 0.0,
                    "MagpieData mean MendeleevNumber": 77.0,
                    "MagpieData avg_dev MendeleevNumber": 0.0,
                    "MagpieData mode MendeleevNumber": 77.0,
                    "MagpieData std_dev MendeleevNumber": 0,
                    "MagpieData minimum AtomicWeight": 12.0107,
                    "MagpieData maximum AtomicWeight": 12.0107,
                    "MagpieData range AtomicWeight": 0.0,
                    "MagpieData mean AtomicWeight": 12.0107,
                    "MagpieData avg_dev AtomicWeight": 0.0,
                    "MagpieData mode AtomicWeight": 12.0107,
                    "MagpieData std_dev AtomicWeight": 0,
                    "MagpieData minimum MeltingT": 3823.0,
                    "MagpieData maximum MeltingT": 3823.0,
                    "MagpieData range MeltingT": 0.0,
                    "MagpieData mean MeltingT": 3823.0,
                    "MagpieData avg_dev MeltingT": 0.0,
                    "MagpieData mode MeltingT": 3823.0,
                    "MagpieData std_dev MeltingT": 0,
                    "MagpieData minimum Column": 14.0,
                    "MagpieData maximum Column": 14.0,
                    "MagpieData range Column": 0.0,
                    "MagpieData mean Column": 14.0,
                    "MagpieData avg_dev Column": 0.0,
                    "MagpieData mode Column": 14.0,
                    "MagpieData std_dev Column": 0,
                    "MagpieData minimum Row": 2.0,
                    "MagpieData maximum Row": 2.0,
                    "MagpieData range Row": 0.0,
                    "MagpieData mean Row": 2.0,
                    "MagpieData avg_dev Row": 0.0,
                    "MagpieData mode Row": 2.0,
                    "MagpieData std_dev Row": 0,
                    "MagpieData minimum CovalentRadius": 76.0,
                    "MagpieData maximum CovalentRadius": 76.0,
                    "MagpieData range CovalentRadius": 0.0,
                    "MagpieData mean CovalentRadius": 76.0,
                    "MagpieData avg_dev CovalentRadius": 0.0,
                    "MagpieData mode CovalentRadius": 76.0,
                    "MagpieData std_dev CovalentRadius": 0,
                    "MagpieData minimum Electronegativity": 2.55,
                    "MagpieData maximum Electronegativity": 2.55,
                    "MagpieData range Electronegativity": 0.0,
                    "MagpieData mean Electronegativity": 2.55,
                    "MagpieData avg_dev Electronegativity": 0.0,
                    "MagpieData mode Electronegativity": 2.55,
                    "MagpieData std_dev Electronegativity": 0,
                    "MagpieData minimum NsValence": 2.0,
                    "MagpieData maximum NsValence": 2.0,
                    "MagpieData range NsValence": 0.0,
                    "MagpieData mean NsValence": 2.0,
                    "MagpieData avg_dev NsValence": 0.0,
                    "MagpieData mode NsValence": 2.0,
                    "MagpieData std_dev NsValence": 0,
                    "MagpieData minimum NpValence": 2.0,
                    "MagpieData maximum NpValence": 2.0,
                    "MagpieData range NpValence": 0.0,
                    "MagpieData mean NpValence": 2.0,
                    "MagpieData avg_dev NpValence": 0.0,
                    "MagpieData mode NpValence": 2.0,
                    "MagpieData std_dev NpValence": 0,
                    "MagpieData minimum NdValence": 0.0,
                    "MagpieData maximum NdValence": 0.0,
                    "MagpieData range NdValence": 0.0,
                    "MagpieData mean NdValence": 0.0,
                    "MagpieData avg_dev NdValence": 0.0,
                    "MagpieData mode NdValence": 0.0,
                    "MagpieData std_dev NdValence": 0,
                    "MagpieData minimum NfValence": 0.0,
                    "MagpieData maximum NfValence": 0.0,
                    "MagpieData range NfValence": 0.0,
                    "MagpieData mean NfValence": 0.0,
                    "MagpieData avg_dev NfValence": 0.0,
                    "MagpieData mode NfValence": 0.0,
                    "MagpieData std_dev NfValence": 0,
                    "MagpieData minimum NValence": 4.0,
                    "MagpieData maximum NValence": 4.0,
                    "MagpieData range NValence": 0.0,
                    "MagpieData mean NValence": 4.0,
                    "MagpieData avg_dev NValence": 0.0,
                    "MagpieData mode NValence": 4.0,
                    "MagpieData std_dev NValence": 0,
                    "MagpieData minimum NsUnfilled": 0.0,
                    "MagpieData maximum NsUnfilled": 0.0,
                    "MagpieData range NsUnfilled": 0.0,
                    "MagpieData mean NsUnfilled": 0.0,
                    "MagpieData avg_dev NsUnfilled": 0.0,
                    "MagpieData mode NsUnfilled": 0.0,
                    "MagpieData std_dev NsUnfilled": 0,
                    "MagpieData minimum NpUnfilled": 4.0,
                    "MagpieData maximum NpUnfilled": 4.0,
                    "MagpieData range NpUnfilled": 0.0,
                    "MagpieData mean NpUnfilled": 4.0,
                    "MagpieData avg_dev NpUnfilled": 0.0,
                    "MagpieData mode NpUnfilled": 4.0,
                    "MagpieData std_dev NpUnfilled": 0,
                    "MagpieData minimum NdUnfilled": 0.0,
                    "MagpieData maximum NdUnfilled": 0.0,
                    "MagpieData range NdUnfilled": 0.0,
                    "MagpieData mean NdUnfilled": 0.0,
                    "MagpieData avg_dev NdUnfilled": 0.0,
                    "MagpieData mode NdUnfilled": 0.0,
                    "MagpieData std_dev NdUnfilled": 0,
                    "MagpieData minimum NfUnfilled": 0.0,
                    "MagpieData maximum NfUnfilled": 0.0,
                    "MagpieData range NfUnfilled": 0.0,
                    "MagpieData mean NfUnfilled": 0.0,
                    "MagpieData avg_dev NfUnfilled": 0.0,
                    "MagpieData mode NfUnfilled": 0.0,
                    "MagpieData std_dev NfUnfilled": 0,
                    "MagpieData minimum NUnfilled": 4.0,
                    "MagpieData maximum NUnfilled": 4.0,
                    "MagpieData range NUnfilled": 0.0,
                    "MagpieData mean NUnfilled": 4.0,
                    "MagpieData avg_dev NUnfilled": 0.0,
                    "MagpieData mode NUnfilled": 4.0,
                    "MagpieData std_dev NUnfilled": 0,
                    "MagpieData minimum GSvolume_pa": 5.64,
                    "MagpieData maximum GSvolume_pa": 5.64,
                    "MagpieData range GSvolume_pa": 0.0,
                    "MagpieData mean GSvolume_pa": 5.64,
                    "MagpieData avg_dev GSvolume_pa": 0.0,
                    "MagpieData mode GSvolume_pa": 5.64,
                    "MagpieData std_dev GSvolume_pa": 0,
                    "MagpieData minimum GSbandgap": 4.496,
                    "MagpieData maximum GSbandgap": 4.496,
                    "MagpieData range GSbandgap": 0.0,
                    "MagpieData mean GSbandgap": 4.496,
                    "MagpieData avg_dev GSbandgap": 0.0,
                    "MagpieData mode GSbandgap": 4.496,
                    "MagpieData std_dev GSbandgap": 0,
                    "MagpieData minimum GSmagmom": 0.0,
                    "MagpieData maximum GSmagmom": 0.0,
                    "MagpieData range GSmagmom": 0.0,
                    "MagpieData mean GSmagmom": 0.0,
                    "MagpieData avg_dev GSmagmom": 0.0,
                    "MagpieData mode GSmagmom": 0.0,
                    "MagpieData std_dev GSmagmom": 0,
                    "MagpieData minimum SpaceGroupNumber": 194.0,
                    "MagpieData maximum SpaceGroupNumber": 194.0,
                    "MagpieData range SpaceGroupNumber": 0.0,
                    "MagpieData mean SpaceGroupNumber": 194.0,
                    "MagpieData avg_dev SpaceGroupNumber": 0.0,
                    "MagpieData mode SpaceGroupNumber": 194.0,
                    "MagpieData std_dev SpaceGroupNumber": 0
                }
            }
        }
    ],
    "test_operating_temperature_celsius": 22.5,
    "min_pH_when_testing": 6.5,
    "max_pH_when_testing": 6.5,
    "test_medium_electrolyte": [
        {
            "substance_name": "tromethamine",
            "substance_type": "small molecule",
            "substance_descriptors": {
                "CID": 6503,
                "MolecularFormula": "C4H11NO3",
                "MolecularWeight": "121.14",
                "CanonicalSMILES": "C(C(CO)(CO)N)O",
                "IsomericSMILES": "C(C(CO)(CO)N)O",
                "InChI": "InChI=1S/C4H11NO3/c5-4(1-6,2-7)3-8/h6-8H,1-3,5H2",
                "InChIKey": "LENZDBCJOHFCAS-UHFFFAOYSA-N",
                "IUPACName": "2-amino-2-(hydroxymethyl)propane-1,3-diol",
                "XLogP": -2.9,
                "ExactMass": "121.07389321",
                "MonoisotopicMass": "121.07389321",
                "TPSA": 86.7,
                "Complexity": 54,
                "Charge": 0,
                "HBondDonorCount": 4,
                "HBondAcceptorCount": 4,
                "RotatableBondCount": 3,
                "HeavyAtomCount": 8,
                "IsotopeAtomCount": 0,
                "AtomStereoCount": 0,
                "DefinedAtomStereoCount": 0,
                "UndefinedAtomStereoCount": 0,
                "BondStereoCount": 0,
                "DefinedBondStereoCount": 0,
                "UndefinedBondStereoCount": 0,
                "CovalentUnitCount": 1,
                "Volume3D": 90.8,
                "XStericQuadrupole3D": 2.26,
                "YStericQuadrupole3D": 1.51,
                "ZStericQuadrupole3D": 0.98,
                "FeatureAcceptorCount3D": 3,
                "FeatureDonorCount3D": 4,
                "FeatureAnionCount3D": 0,
                "FeatureCationCount3D": 1,
                "FeatureRingCount3D": 0,
                "FeatureHydrophobeCount3D": 0,
                "ConformerModelRMSD3D": 0.6,
                "EffectiveRotorCount3D": 3,
                "ConformerCount3D": 9,
                "Morgan_128": [
                    0,
                    0,
                    0,
                    0,
                    0,
                    0,
                    0,
                    0,
                    0,
                    0,
                    0,
                    0,
                    0,
                    0,
                    0,
                    0,
                    0,
                    0,
                    0,
                    1,
                    0,
                    0,
                    0,
                    0,
                    0,
                    0,
                    0,
                    0,
                    0,
                    0,
                    0,
                    1,
                    0,
                    1,
                    0,
                    1,
                    0,
                    0,
                    0,
                    1,
                    0,
                    0,
                    0,
                    0,
                    0,
                    0,
                    0,
                    0,
                    0,
                    0,
                    0,
                    0,
                    0,
                    0,
                    0,
                    0,
                    0,
                    0,
                    0,
                    0,
                    0,
                    0,
                    0,
                    0,
                    0,
                    0,
                    0,
                    0,
                    0,
                    0,
                    0,
                    0,
                    0,
                    0,
                    0,
                    0,
                    0,
                    0,
                    0,
                    0,
                    1,
                    0,
                    0,
                    0,
                    0,
                    0,
                    0,
                    0,
                    0,
                    0,
                    0,
                    1,
                    0,
                    0,
                    1,
                    0,
                    0,
                    0,
                    0,
                    0,
                    0,
                    0,
                    0,
                    0,
                    0,
                    0,
                    0,
                    0,
                    0,
                    0,
                    0,
                    0,
                    0,
                    0,
                    1,
                    1,
                    0,
                    0,
                    0,
                    0,
                    0,
                    0,
                    0,
                    0,
                    0,
                    0,
                    0,
                    0
                ]
            }
        },
        {
            "substance_name": "edetic acid",
            "substance_type": "small molecule",
            "substance_descriptors": {
                "CID": 6049,
                "MolecularFormula": "C10H16N2O8",
                "MolecularWeight": "292.24",
                "CanonicalSMILES": "C(CN(CC(=O)O)CC(=O)O)N(CC(=O)O)CC(=O)O",
                "IsomericSMILES": "C(CN(CC(=O)O)CC(=O)O)N(CC(=O)O)CC(=O)O",
                "InChI": "InChI=1S/C10H16N2O8/c13-7(14)3-11(4-8(15)16)1-2-12(5-9(17)18)6-10(19)20/h1-6H2,(H,13,14)(H,15,16)(H,17,18)(H,19,20)",
                "InChIKey": "KCXVZYZYPLLWCC-UHFFFAOYSA-N",
                "IUPACName": "2-[2-[bis(carboxymethyl)amino]ethyl-(carboxymethyl)amino]acetic acid",
                "XLogP": -5.9,
                "ExactMass": "292.09066547",
                "MonoisotopicMass": "292.09066547",
                "TPSA": 156,
                "Complexity": 316,
                "Charge": 0,
                "HBondDonorCount": 4,
                "HBondAcceptorCount": 10,
                "RotatableBondCount": 11,
                "HeavyAtomCount": 20,
                "IsotopeAtomCount": 0,
                "AtomStereoCount": 0,
                "DefinedAtomStereoCount": 0,
                "UndefinedAtomStereoCount": 0,
                "BondStereoCount": 0,
                "DefinedBondStereoCount": 0,
                "UndefinedBondStereoCount": 0,
                "CovalentUnitCount": 1,
                "Volume3D": 211.7,
                "XStericQuadrupole3D": 8.28,
                "YStericQuadrupole3D": 3.03,
                "ZStericQuadrupole3D": 2.03,
                "FeatureAcceptorCount3D": 8,
                "FeatureDonorCount3D": 0,
                "FeatureAnionCount3D": 4,
                "FeatureCationCount3D": 2,
                "FeatureRingCount3D": 0,
                "FeatureHydrophobeCount3D": 0,
                "ConformerModelRMSD3D": 1,
                "EffectiveRotorCount3D": 11,
                "ConformerCount3D": 10,
                "Morgan_128": [
                    0,
                    0,
                    1,
                    1,
                    0,
                    1,
                    0,
                    0,
                    0,
                    0,
                    1,
                    0,
                    0,
                    0,
                    0,
                    0,
                    0,
                    0,
                    0,
                    0,
                    0,
                    0,
                    0,
                    0,
                    0,
                    0,
                    0,
                    0,
                    0,
                    0,
                    0,
                    1,
                    0,
                    0,
                    0,
                    0,
                    0,
                    0,
                    1,
                    1,
                    0,
                    0,
                    0,
                    0,
                    0,
                    0,
                    0,
                    0,
                    0,
                    0,
                    0,
                    0,
                    0,
                    0,
                    0,
                    0,
                    0,
                    0,
                    0,
                    0,
                    0,
                    0,
                    0,
                    0,
                    0,
                    0,
                    0,
                    0,
                    0,
                    0,
                    0,
                    0,
                    0,
                    1,
                    0,
                    0,
                    0,
                    0,
                    0,
                    0,
                    1,
                    0,
                    0,
                    0,
                    0,
                    0,
                    0,
                    0,
                    0,
                    0,
                    0,
                    0,
                    0,
                    1,
                    0,
                    0,
                    0,
                    0,
                    0,
                    0,
                    0,
                    0,
                    0,
                    0,
                    0,
                    0,
                    0,
                    0,
                    0,
                    0,
                    0,
                    0,
                    0,
                    1,
                    0,
                    0,
                    0,
                    0,
                    0,
                    0,
                    0,
                    0,
                    1,
                    1,
                    0,
                    1,
                    0,
                    0
                ]
            }
        },
        {
            "substance_name": "water",
            "substance_type": "small molecule",
            "substance_descriptors": {
                "CID": 962,
                "MolecularFormula": "H2O",
                "MolecularWeight": "18.015",
                "CanonicalSMILES": "O",
                "IsomericSMILES": "O",
                "InChI": "InChI=1S/H2O/h1H2",
                "InChIKey": "XLYOFNOQVPJJNP-UHFFFAOYSA-N",
                "IUPACName": "oxidane",
                "XLogP": -0.5,
                "ExactMass": "18.010564683",
                "MonoisotopicMass": "18.010564683",
                "TPSA": 1,
                "Complexity": 0,
                "Charge": 0,
                "HBondDonorCount": 1,
                "HBondAcceptorCount": 1,
                "RotatableBondCount": 0,
                "HeavyAtomCount": 1,
                "IsotopeAtomCount": 0,
                "AtomStereoCount": 0,
                "DefinedAtomStereoCount": 0,
                "UndefinedAtomStereoCount": 0,
                "BondStereoCount": 0,
                "DefinedBondStereoCount": 0,
                "UndefinedBondStereoCount": 0,
                "CovalentUnitCount": 1,
                "Volume3D": 14.7,
                "XStericQuadrupole3D": 0.49,
                "YStericQuadrupole3D": 0.49,
                "ZStericQuadrupole3D": 0.49,
                "FeatureAcceptorCount3D": 1,
                "FeatureDonorCount3D": 1,
                "FeatureAnionCount3D": 0,
                "FeatureCationCount3D": 0,
                "FeatureRingCount3D": 0,
                "FeatureHydrophobeCount3D": 0,
                "ConformerModelRMSD3D": 0.4,
                "EffectiveRotorCount3D": 0,
                "ConformerCount3D": 1,
                "Morgan_128": [
                    0,
                    0,
                    0,
                    0,
                    0,
                    0,
                    0,
                    0,
                    0,
                    0,
                    0,
                    0,
                    0,
                    0,
                    0,
                    0,
                    0,
                    0,
                    0,
                    0,
                    0,
                    0,
                    1,
                    0,
                    0,
                    0,
                    0,
                    0,
                    0,
                    0,
                    0,
                    0,
                    0,
                    0,
                    0,
                    0,
                    0,
                    0,
                    0,
                    0,
                    0,
                    0,
                    0,
                    0,
                    0,
                    0,
                    0,
                    0,
                    0,
                    0,
                    0,
                    0,
                    0,
                    0,
                    0,
                    0,
                    0,
                    0,
                    0,
                    0,
                    0,
                    0,
                    0,
                    0,
                    0,
                    0,
                    0,
                    0,
                    0,
                    0,
                    0,
                    0,
                    0,
                    0,
                    0,
                    0,
                    0,
                    0,
                    0,
                    0,
                    0,
                    0,
                    0,
                    0,
                    0,
                    0,
                    0,
                    0,
                    0,
                    0,
                    0,
                    0,
                    0,
                    0,
                    0,
                    0,
                    0,
                    0,
                    0,
                    0,
                    0,
                    0,
                    0,
                    0,
                    0,
                    0,
                    0,
                    0,
                    0,
                    0,
                    0,
                    0,
                    0,
                    0,
                    0,
                    0,
                    0,
                    0,
                    0,
                    0,
                    0,
                    0,
                    0,
                    0,
                    0,
                    0,
                    0,
                    0
                ]
            }
        }
    ],
    "LDL_ranking": 1.0,
    "UDL_ranking": 1.0,
    "LDL_category": "Very High Detection (Low Sensitivity)",
    "UDL_category": "Moderate UDL Range"
}