{
    "DOI": "10.1002/adma.201702469",
    "sensor_type": "gas",
    "detect_target": [
        {
            "substance_name": "oxygen",
            "substance_type": "small molecule",
            "substance_descriptors": {
                "CID": 977,
                "MolecularFormula": "O2",
                "MolecularWeight": "31.999",
                "CanonicalSMILES": "O=O",
                "IsomericSMILES": "O=O",
                "InChI": "InChI=1S/O2/c1-2",
                "InChIKey": "MYMOFIZGZYHOMD-UHFFFAOYSA-N",
                "IUPACName": "molecular oxygen",
                "XLogP": -1.1,
                "ExactMass": "31.989829239",
                "MonoisotopicMass": "31.989829239",
                "TPSA": 34.1,
                "Complexity": 0,
                "Charge": 0,
                "HBondDonorCount": 0,
                "HBondAcceptorCount": 2,
                "RotatableBondCount": 0,
                "HeavyAtomCount": 2,
                "IsotopeAtomCount": 0,
                "AtomStereoCount": 0,
                "DefinedAtomStereoCount": 0,
                "UndefinedAtomStereoCount": 0,
                "BondStereoCount": 0,
                "DefinedBondStereoCount": 0,
                "UndefinedBondStereoCount": 0,
                "CovalentUnitCount": 1,
                "Volume3D": 22.9,
                "XStericQuadrupole3D": 0.87,
                "YStericQuadrupole3D": 0.49,
                "ZStericQuadrupole3D": 0.49,
                "FeatureAcceptorCount3D": 0,
                "FeatureDonorCount3D": 0,
                "FeatureAnionCount3D": 0,
                "FeatureCationCount3D": 0,
                "FeatureRingCount3D": 0,
                "FeatureHydrophobeCount3D": 0,
                "ConformerModelRMSD3D": 0.4,
                "EffectiveRotorCount3D": 0,
                "ConformerCount3D": 1,
                "Morgan_128": [
                    0,
                    0,
                    0,
                    0,
                    0,
                    0,
                    0,
                    0,
                    0,
                    0,
                    1,
                    0,
                    0,
                    0,
                    0,
                    0,
                    1,
                    0,
                    0,
                    0,
                    0,
                    0,
                    0,
                    0,
                    0,
                    0,
                    0,
                    0,
                    0,
                    0,
                    0,
                    0,
                    0,
                    0,
                    0,
                    0,
                    0,
                    0,
                    0,
                    0,
                    0,
                    0,
                    0,
                    0,
                    0,
                    0,
                    0,
                    0,
                    0,
                    0,
                    0,
                    0,
                    0,
                    0,
                    0,
                    0,
                    0,
                    0,
                    0,
                    0,
                    0,
                    0,
                    0,
                    0,
                    0,
                    0,
                    0,
                    0,
                    0,
                    0,
                    0,
                    0,
                    0,
                    0,
                    0,
                    0,
                    0,
                    0,
                    0,
                    0,
                    0,
                    0,
                    0,
                    0,
                    0,
                    0,
                    0,
                    0,
                    0,
                    0,
                    0,
                    0,
                    0,
                    0,
                    0,
                    0,
                    0,
                    0,
                    0,
                    0,
                    0,
                    0,
                    0,
                    0,
                    0,
                    0,
                    0,
                    0,
                    0,
                    0,
                    0,
                    0,
                    0,
                    0,
                    0,
                    0,
                    0,
                    0,
                    0,
                    0,
                    0,
                    0,
                    0,
                    0,
                    0,
                    0,
                    0,
                    0
                ]
            }
        }
    ],
    "lower_detection_limit_log_ppm": 1.84509804,
    "upper_detection_limit_log_ppm": 5.977723605,
    "probe_material": [
        {
            "substance_name": "lead methylammonium tri-iodide",
            "substance_type": "inorganic solid",
            "substance_descriptors": {
                "Number of Elements": 5,
                "Element Types": [
                    "C",
                    "H",
                    "N",
                    "I",
                    "Pb"
                ],
                "Number of Atoms in Unit Cell": 126,
                "Lattice Parameter a (\u00c5)": "6.30649",
                "Lattice Parameter b (\u00c5)": "6.30649",
                "Lattice Parameter c (\u00c5)": "6.30649",
                "Lattice Angle alpha (degrees)": "90",
                "Lattice Angle beta (degrees)": "90",
                "Lattice Angle gamma (degrees)": "90",
                "Unit Cell Volume (\u00c5\u00b3)": 2189.687849691714,
                "Density (g/cm\u00b3)": 3.1896971037538657,
                "Space Group Number": 6,
                "Band Gap (eV)": 1.7045000000000001,
                "Is Metallic (1/0)": 0,
                "Formation Energy per Atom (eV)": -0.4083113526984127,
                "Energy Above Hull (eV/atom)": 0.04976603884920472,
                "Energy per Atom (eV/atom)": -4.753348851269841,
                "Total Magnetization (\u03bcB)": 0.1611482,
                "Magnetic Ordering": "NM",
                "Bulk Modulus (GPa)": -99999,
                "Shear Modulus (GPa)": -99999,
                "Fermi Energy (eV)": 0.88787206,
                "Total Energy (eV)": -3.23198,
                "Crystal System": "monoclinic",
                "Magpie Descriptors": {
                    "MagpieData minimum Number": 1.0,
                    "MagpieData maximum Number": 82.0,
                    "MagpieData range Number": 81.0,
                    "MagpieData mean Number": 23.75,
                    "MagpieData avg_dev Number": 24.333333333333336,
                    "MagpieData mode Number": 6.0,
                    "MagpieData std_dev Number": 32.87903967575695,
                    "MagpieData minimum MendeleevNumber": 77.0,
                    "MagpieData maximum MendeleevNumber": 96.0,
                    "MagpieData range MendeleevNumber": 19.0,
                    "MagpieData mean MendeleevNumber": 83.75,
                    "MagpieData avg_dev MendeleevNumber": 7.5,
                    "MagpieData mode MendeleevNumber": 77.0,
                    "MagpieData std_dev MendeleevNumber": 10.014052626184863,
                    "MagpieData minimum AtomicWeight": 1.00794,
                    "MagpieData maximum AtomicWeight": 207.2,
                    "MagpieData range AtomicWeight": 206.19206,
                    "MagpieData mean AtomicWeight": 56.24935416666666,
                    "MagpieData avg_dev AtomicWeight": 60.485998888888886,
                    "MagpieData mode AtomicWeight": 12.0107,
                    "MagpieData std_dev AtomicWeight": 82.41733772605971,
                    "MagpieData minimum MeltingT": 14.01,
                    "MagpieData maximum MeltingT": 3823.0,
                    "MagpieData range MeltingT": 3808.99,
                    "MagpieData mean MeltingT": 2064.685,
                    "MagpieData avg_dev MeltingT": 1758.3149999999998,
                    "MagpieData mode MeltingT": 3823.0,
                    "MagpieData std_dev MeltingT": 2160.750648834219,
                    "MagpieData minimum Column": 1.0,
                    "MagpieData maximum Column": 17.0,
                    "MagpieData range Column": 16.0,
                    "MagpieData mean Column": 13.749999999999998,
                    "MagpieData avg_dev Column": 2.1250000000000013,
                    "MagpieData mode Column": 14.0,
                    "MagpieData std_dev Column": 4.952903189039737,
                    "MagpieData minimum Row": 1.0,
                    "MagpieData maximum Row": 6.0,
                    "MagpieData range Row": 5.0,
                    "MagpieData mean Row": 3.0,
                    "MagpieData avg_dev Row": 1.5,
                    "MagpieData mode Row": 2.0,
                    "MagpieData std_dev Row": 1.9999999999999998,
                    "MagpieData minimum CovalentRadius": 31.0,
                    "MagpieData maximum CovalentRadius": 146.0,
                    "MagpieData range CovalentRadius": 115.0,
                    "MagpieData mean CovalentRadius": 93.41666666666667,
                    "MagpieData avg_dev CovalentRadius": 31.555555555555557,
                    "MagpieData mode CovalentRadius": 76.0,
                    "MagpieData std_dev CovalentRadius": 43.61323862468062,
                    "MagpieData minimum Electronegativity": 2.2,
                    "MagpieData maximum Electronegativity": 3.04,
                    "MagpieData range Electronegativity": 0.8399999999999999,
                    "MagpieData mean Electronegativity": 2.5708333333333333,
                    "MagpieData avg_dev Electronegativity": 0.12277777777777786,
                    "MagpieData mode Electronegativity": 2.55,
                    "MagpieData std_dev Electronegativity": 0.23507755812355485,
                    "MagpieData minimum NsValence": 1.0,
                    "MagpieData maximum NsValence": 2.0,
                    "MagpieData range NsValence": 1.0,
                    "MagpieData mean NsValence": 1.9166666666666667,
                    "MagpieData avg_dev NsValence": 0.1527777777777777,
                    "MagpieData mode NsValence": 2.0,
                    "MagpieData std_dev NsValence": 0.33850160019316494,
                    "MagpieData minimum NpValence": 0.0,
                    "MagpieData maximum NpValence": 5.0,
                    "MagpieData range NpValence": 5.0,
                    "MagpieData mean NpValence": 2.6666666666666665,
                    "MagpieData avg_dev NpValence": 1.222222222222222,
                    "MagpieData mode NpValence": 2.0,
                    "MagpieData std_dev NpValence": 1.8257418583505536,
                    "MagpieData minimum NdValence": 0.0,
                    "MagpieData maximum NdValence": 10.0,
                    "MagpieData range NdValence": 10.0,
                    "MagpieData mean NdValence": 3.333333333333333,
                    "MagpieData avg_dev NdValence": 4.444444444444444,
                    "MagpieData mode NdValence": 0.0,
                    "MagpieData std_dev NdValence": 5.773502691896257,
                    "MagpieData minimum NfValence": 0.0,
                    "MagpieData maximum NfValence": 14.0,
                    "MagpieData range NfValence": 14.0,
                    "MagpieData mean NfValence": 1.1666666666666665,
                    "MagpieData avg_dev NfValence": 2.1388888888888884,
                    "MagpieData mode NfValence": 0.0,
                    "MagpieData std_dev NfValence": 4.73902240270431,
                    "MagpieData minimum NValence": 1.0,
                    "MagpieData maximum NValence": 28.0,
                    "MagpieData range NValence": 27.0,
                    "MagpieData mean NValence": 9.083333333333332,
                    "MagpieData avg_dev NValence": 7.111111111111111,
                    "MagpieData mode NValence": 4.0,
                    "MagpieData std_dev NValence": 9.89265299772176,
                    "MagpieData minimum NsUnfilled": 0.0,
                    "MagpieData maximum NsUnfilled": 1.0,
                    "MagpieData range NsUnfilled": 1.0,
                    "MagpieData mean NsUnfilled": 0.08333333333333333,
                    "MagpieData avg_dev NsUnfilled": 0.1527777777777778,
                    "MagpieData mode NsUnfilled": 0.0,
                    "MagpieData std_dev NsUnfilled": 0.33850160019316494,
                    "MagpieData minimum NpUnfilled": 0.0,
                    "MagpieData maximum NpUnfilled": 4.0,
                    "MagpieData range NpUnfilled": 4.0,
                    "MagpieData mean NpUnfilled": 2.8333333333333335,
                    "MagpieData avg_dev NpUnfilled": 1.3888888888888888,
                    "MagpieData mode NpUnfilled": 4.0,
                    "MagpieData std_dev NpUnfilled": 1.8596594670351163,
                    "MagpieData minimum NdUnfilled": 0.0,
                    "MagpieData maximum NdUnfilled": 0.0,
                    "MagpieData range NdUnfilled": 0.0,
                    "MagpieData mean NdUnfilled": 0.0,
                    "MagpieData avg_dev NdUnfilled": 0.0,
                    "MagpieData mode NdUnfilled": 0.0,
                    "MagpieData std_dev NdUnfilled": 0.0,
                    "MagpieData minimum NfUnfilled": 0.0,
                    "MagpieData maximum NfUnfilled": 0.0,
                    "MagpieData range NfUnfilled": 0.0,
                    "MagpieData mean NfUnfilled": 0.0,
                    "MagpieData avg_dev NfUnfilled": 0.0,
                    "MagpieData mode NfUnfilled": 0.0,
                    "MagpieData std_dev NfUnfilled": 0.0,
                    "MagpieData minimum NUnfilled": 1.0,
                    "MagpieData maximum NUnfilled": 4.0,
                    "MagpieData range NUnfilled": 3.0,
                    "MagpieData mean NUnfilled": 2.916666666666667,
                    "MagpieData avg_dev NUnfilled": 1.2777777777777777,
                    "MagpieData mode NUnfilled": 4.0,
                    "MagpieData std_dev NUnfilled": 1.6925080009658249,
                    "MagpieData minimum GSvolume_pa": 5.64,
                    "MagpieData maximum GSvolume_pa": 43.015,
                    "MagpieData range GSvolume_pa": 37.375,
                    "MagpieData mean GSvolume_pa": 17.698229166666668,
                    "MagpieData avg_dev GSvolume_pa": 14.393680555555555,
                    "MagpieData mode GSvolume_pa": 5.64,
                    "MagpieData std_dev GSvolume_pa": 19.477701317571753,
                    "MagpieData minimum GSbandgap": 0.0,
                    "MagpieData maximum GSbandgap": 7.853,
                    "MagpieData range GSbandgap": 7.853,
                    "MagpieData mean GSbandgap": 3.7043333333333335,
                    "MagpieData avg_dev GSbandgap": 1.9385555555555556,
                    "MagpieData mode GSbandgap": 4.496,
                    "MagpieData std_dev GSbandgap": 2.8086291288337324,
                    "MagpieData minimum GSmagmom": 0.0,
                    "MagpieData maximum GSmagmom": 0.0,
                    "MagpieData range GSmagmom": 0.0,
                    "MagpieData mean GSmagmom": 0.0,
                    "MagpieData avg_dev GSmagmom": 0.0,
                    "MagpieData mode GSmagmom": 0.0,
                    "MagpieData std_dev GSmagmom": 0.0,
                    "MagpieData minimum SpaceGroupNumber": 64.0,
                    "MagpieData maximum SpaceGroupNumber": 225.0,
                    "MagpieData range SpaceGroupNumber": 161.0,
                    "MagpieData mean SpaceGroupNumber": 164.08333333333331,
                    "MagpieData avg_dev SpaceGroupNumber": 50.04166666666668,
                    "MagpieData mode SpaceGroupNumber": 194.0,
                    "MagpieData std_dev SpaceGroupNumber": 71.5200292458926
                }
            }
        }
    ],
    "test_operating_temperature_celsius": 22.5,
    "min_pH_when_testing": -1.0,
    "max_pH_when_testing": -1.0,
    "test_medium_electrolyte": [
        {
            "substance_name": "oxygen",
            "substance_type": "small molecule",
            "substance_descriptors": {
                "CID": 977,
                "MolecularFormula": "O2",
                "MolecularWeight": "31.999",
                "CanonicalSMILES": "O=O",
                "IsomericSMILES": "O=O",
                "InChI": "InChI=1S/O2/c1-2",
                "InChIKey": "MYMOFIZGZYHOMD-UHFFFAOYSA-N",
                "IUPACName": "molecular oxygen",
                "XLogP": -1.1,
                "ExactMass": "31.989829239",
                "MonoisotopicMass": "31.989829239",
                "TPSA": 34.1,
                "Complexity": 0,
                "Charge": 0,
                "HBondDonorCount": 0,
                "HBondAcceptorCount": 2,
                "RotatableBondCount": 0,
                "HeavyAtomCount": 2,
                "IsotopeAtomCount": 0,
                "AtomStereoCount": 0,
                "DefinedAtomStereoCount": 0,
                "UndefinedAtomStereoCount": 0,
                "BondStereoCount": 0,
                "DefinedBondStereoCount": 0,
                "UndefinedBondStereoCount": 0,
                "CovalentUnitCount": 1,
                "Volume3D": 22.9,
                "XStericQuadrupole3D": 0.87,
                "YStericQuadrupole3D": 0.49,
                "ZStericQuadrupole3D": 0.49,
                "FeatureAcceptorCount3D": 0,
                "FeatureDonorCount3D": 0,
                "FeatureAnionCount3D": 0,
                "FeatureCationCount3D": 0,
                "FeatureRingCount3D": 0,
                "FeatureHydrophobeCount3D": 0,
                "ConformerModelRMSD3D": 0.4,
                "EffectiveRotorCount3D": 0,
                "ConformerCount3D": 1,
                "Morgan_128": [
                    0,
                    0,
                    0,
                    0,
                    0,
                    0,
                    0,
                    0,
                    0,
                    0,
                    1,
                    0,
                    0,
                    0,
                    0,
                    0,
                    1,
                    0,
                    0,
                    0,
                    0,
                    0,
                    0,
                    0,
                    0,
                    0,
                    0,
                    0,
                    0,
                    0,
                    0,
                    0,
                    0,
                    0,
                    0,
                    0,
                    0,
                    0,
                    0,
                    0,
                    0,
                    0,
                    0,
                    0,
                    0,
                    0,
                    0,
                    0,
                    0,
                    0,
                    0,
                    0,
                    0,
                    0,
                    0,
                    0,
                    0,
                    0,
                    0,
                    0,
                    0,
                    0,
                    0,
                    0,
                    0,
                    0,
                    0,
                    0,
                    0,
                    0,
                    0,
                    0,
                    0,
                    0,
                    0,
                    0,
                    0,
                    0,
                    0,
                    0,
                    0,
                    0,
                    0,
                    0,
                    0,
                    0,
                    0,
                    0,
                    0,
                    0,
                    0,
                    0,
                    0,
                    0,
                    0,
                    0,
                    0,
                    0,
                    0,
                    0,
                    0,
                    0,
                    0,
                    0,
                    0,
                    0,
                    0,
                    0,
                    0,
                    0,
                    0,
                    0,
                    0,
                    0,
                    0,
                    0,
                    0,
                    0,
                    0,
                    0,
                    0,
                    0,
                    0,
                    0,
                    0,
                    0,
                    0,
                    0
                ]
            }
        },
        {
            "substance_name": "argon",
            "substance_type": "small molecule",
            "substance_descriptors": {
                "CID": 23968,
                "MolecularFormula": "Ar",
                "MolecularWeight": "39.9",
                "CanonicalSMILES": "[Ar]",
                "IsomericSMILES": "[Ar]",
                "InChI": "InChI=1S/Ar",
                "InChIKey": "XKRFYHLGVUSROY-UHFFFAOYSA-N",
                "IUPACName": "argon",
                "ExactMass": "39.96238312",
                "MonoisotopicMass": "39.96238312",
                "TPSA": 0,
                "Complexity": 0,
                "Charge": 0,
                "HBondDonorCount": 0,
                "HBondAcceptorCount": 0,
                "RotatableBondCount": 0,
                "HeavyAtomCount": 1,
                "IsotopeAtomCount": 0,
                "AtomStereoCount": 0,
                "DefinedAtomStereoCount": 0,
                "UndefinedAtomStereoCount": 0,
                "BondStereoCount": 0,
                "DefinedBondStereoCount": 0,
                "UndefinedBondStereoCount": 0,
                "CovalentUnitCount": 1,
                "ConformerCount3D": 0,
                "Morgan_128": [
                    0,
                    0,
                    0,
                    0,
                    0,
                    0,
                    0,
                    0,
                    0,
                    0,
                    0,
                    0,
                    0,
                    0,
                    0,
                    0,
                    0,
                    0,
                    0,
                    0,
                    0,
                    0,
                    0,
                    0,
                    0,
                    0,
                    0,
                    0,
                    0,
                    0,
                    0,
                    0,
                    0,
                    0,
                    0,
                    0,
                    0,
                    0,
                    0,
                    0,
                    0,
                    1,
                    0,
                    0,
                    0,
                    0,
                    0,
                    0,
                    0,
                    0,
                    0,
                    0,
                    0,
                    0,
                    0,
                    0,
                    0,
                    0,
                    0,
                    0,
                    0,
                    0,
                    0,
                    0,
                    0,
                    0,
                    0,
                    0,
                    0,
                    0,
                    0,
                    0,
                    0,
                    0,
                    0,
                    0,
                    0,
                    0,
                    0,
                    0,
                    0,
                    0,
                    0,
                    0,
                    0,
                    0,
                    0,
                    0,
                    0,
                    0,
                    0,
                    0,
                    0,
                    0,
                    0,
                    0,
                    0,
                    0,
                    0,
                    0,
                    0,
                    0,
                    0,
                    0,
                    0,
                    0,
                    0,
                    0,
                    0,
                    0,
                    0,
                    0,
                    0,
                    0,
                    0,
                    0,
                    0,
                    0,
                    0,
                    0,
                    0,
                    0,
                    0,
                    0,
                    0,
                    0,
                    0,
                    0
                ]
            }
        }
    ],
    "LDL_ranking": 1.0,
    "UDL_ranking": 1.0,
    "LDL_category": "Very High Detection (Low Sensitivity)",
    "UDL_category": "Very High UDL (Broad Range)"
}