{
    "DOI": "10.1021/acsnano.3c01582",
    "sensor_type": "gas",
    "detect_target": [
        {
            "substance_name": "ammonia",
            "substance_type": "small molecule",
            "substance_descriptors": {
                "CID": 222,
                "MolecularFormula": "H3N",
                "MolecularWeight": "17.031",
                "CanonicalSMILES": "N",
                "IsomericSMILES": "N",
                "InChI": "InChI=1S/H3N/h1H3",
                "InChIKey": "QGZKDVFQNNGYKY-UHFFFAOYSA-N",
                "IUPACName": "azane",
                "XLogP": -0.7,
                "ExactMass": "17.026549100",
                "MonoisotopicMass": "17.026549100",
                "TPSA": 1,
                "Complexity": 0,
                "Charge": 0,
                "HBondDonorCount": 1,
                "HBondAcceptorCount": 1,
                "RotatableBondCount": 0,
                "HeavyAtomCount": 1,
                "IsotopeAtomCount": 0,
                "AtomStereoCount": 0,
                "DefinedAtomStereoCount": 0,
                "UndefinedAtomStereoCount": 0,
                "BondStereoCount": 0,
                "DefinedBondStereoCount": 0,
                "UndefinedBondStereoCount": 0,
                "CovalentUnitCount": 1,
                "Volume3D": 15.6,
                "XStericQuadrupole3D": 0.51,
                "YStericQuadrupole3D": 0.51,
                "ZStericQuadrupole3D": 0.51,
                "FeatureAcceptorCount3D": 0,
                "FeatureDonorCount3D": 0,
                "FeatureAnionCount3D": 0,
                "FeatureCationCount3D": 1,
                "FeatureRingCount3D": 0,
                "FeatureHydrophobeCount3D": 0,
                "ConformerModelRMSD3D": 0.4,
                "EffectiveRotorCount3D": 0,
                "ConformerCount3D": 1,
                "Morgan_128": [
                    0,
                    0,
                    0,
                    0,
                    0,
                    0,
                    0,
                    0,
                    0,
                    0,
                    0,
                    0,
                    0,
                    0,
                    0,
                    0,
                    0,
                    0,
                    0,
                    0,
                    0,
                    0,
                    0,
                    0,
                    0,
                    0,
                    0,
                    0,
                    0,
                    0,
                    0,
                    0,
                    0,
                    0,
                    1,
                    0,
                    0,
                    0,
                    0,
                    0,
                    0,
                    0,
                    0,
                    0,
                    0,
                    0,
                    0,
                    0,
                    0,
                    0,
                    0,
                    0,
                    0,
                    0,
                    0,
                    0,
                    0,
                    0,
                    0,
                    0,
                    0,
                    0,
                    0,
                    0,
                    0,
                    0,
                    0,
                    0,
                    0,
                    0,
                    0,
                    0,
                    0,
                    0,
                    0,
                    0,
                    0,
                    0,
                    0,
                    0,
                    0,
                    0,
                    0,
                    0,
                    0,
                    0,
                    0,
                    0,
                    0,
                    0,
                    0,
                    0,
                    0,
                    0,
                    0,
                    0,
                    0,
                    0,
                    0,
                    0,
                    0,
                    0,
                    0,
                    0,
                    0,
                    0,
                    0,
                    0,
                    0,
                    0,
                    0,
                    0,
                    0,
                    0,
                    0,
                    0,
                    0,
                    0,
                    0,
                    0,
                    0,
                    0,
                    0,
                    0,
                    0,
                    0,
                    0,
                    0
                ]
            }
        }
    ],
    "lower_detection_limit_log_ppm": 1.698970004,
    "upper_detection_limit_log_ppm": 3.301029996,
    "probe_material": [
        {
            "substance_name": "platinum diselenide",
            "substance_type": "inorganic solid",
            "substance_descriptors": {
                "Number of Elements": 2,
                "Element Types": [
                    "Pt",
                    "Se"
                ],
                "Number of Atoms in Unit Cell": 3,
                "Lattice Parameter a (\u00c5)": "3.7278",
                "Lattice Parameter b (\u00c5)": "3.7278",
                "Lattice Parameter c (\u00c5)": "5.0313",
                "Lattice Angle alpha (degrees)": "90",
                "Lattice Angle beta (degrees)": "90",
                "Lattice Angle gamma (degrees)": "120",
                "Unit Cell Volume (\u00c5\u00b3)": 69.64917003734249,
                "Density (g/cm\u00b3)": 8.416136651043896,
                "Space Group Number": 164,
                "Band Gap (eV)": 0.6193,
                "Is Metallic (1/0)": 0,
                "Formation Energy per Atom (eV)": -0.4639161260416671,
                "Energy Above Hull (eV/atom)": 0.0,
                "Energy per Atom (eV/atom)": -27.16752858,
                "Total Magnetization (\u03bcB)": 0.0,
                "Magnetic Ordering": "NM",
                "Bulk Modulus (GPa)": 2.293,
                "Shear Modulus (GPa)": 11.679,
                "Fermi Energy (eV)": 3.08254956,
                "Total Energy (eV)": -2.7785,
                "Crystal System": "trigonal",
                "Magpie Descriptors": {
                    "MagpieData minimum Number": 34.0,
                    "MagpieData maximum Number": 78.0,
                    "MagpieData range Number": 44.0,
                    "MagpieData mean Number": 48.666666666666664,
                    "MagpieData avg_dev Number": 19.555555555555554,
                    "MagpieData mode Number": 34.0,
                    "MagpieData std_dev Number": 31.11269837220809,
                    "MagpieData minimum MendeleevNumber": 63.0,
                    "MagpieData maximum MendeleevNumber": 89.0,
                    "MagpieData range MendeleevNumber": 26.0,
                    "MagpieData mean MendeleevNumber": 80.33333333333333,
                    "MagpieData avg_dev MendeleevNumber": 11.555555555555557,
                    "MagpieData mode MendeleevNumber": 89.0,
                    "MagpieData std_dev MendeleevNumber": 18.384776310850235,
                    "MagpieData minimum AtomicWeight": 78.96,
                    "MagpieData maximum AtomicWeight": 195.084,
                    "MagpieData range AtomicWeight": 116.12400000000001,
                    "MagpieData mean AtomicWeight": 117.66799999999998,
                    "MagpieData avg_dev AtomicWeight": 51.61066666666666,
                    "MagpieData mode AtomicWeight": 78.96,
                    "MagpieData std_dev AtomicWeight": 82.11206785850665,
                    "MagpieData minimum MeltingT": 494.0,
                    "MagpieData maximum MeltingT": 2041.4,
                    "MagpieData range MeltingT": 1547.4,
                    "MagpieData mean MeltingT": 1009.8,
                    "MagpieData avg_dev MeltingT": 687.7333333333333,
                    "MagpieData mode MeltingT": 494.0,
                    "MagpieData std_dev MeltingT": 1094.1770332080637,
                    "MagpieData minimum Column": 10.0,
                    "MagpieData maximum Column": 16.0,
                    "MagpieData range Column": 6.0,
                    "MagpieData mean Column": 14.0,
                    "MagpieData avg_dev Column": 2.6666666666666665,
                    "MagpieData mode Column": 16.0,
                    "MagpieData std_dev Column": 4.242640687119285,
                    "MagpieData minimum Row": 4.0,
                    "MagpieData maximum Row": 6.0,
                    "MagpieData range Row": 2.0,
                    "MagpieData mean Row": 4.666666666666666,
                    "MagpieData avg_dev Row": 0.8888888888888886,
                    "MagpieData mode Row": 4.0,
                    "MagpieData std_dev Row": 1.4142135623730951,
                    "MagpieData minimum CovalentRadius": 120.0,
                    "MagpieData maximum CovalentRadius": 136.0,
                    "MagpieData range CovalentRadius": 16.0,
                    "MagpieData mean CovalentRadius": 125.33333333333333,
                    "MagpieData avg_dev CovalentRadius": 7.111111111111109,
                    "MagpieData mode CovalentRadius": 120.0,
                    "MagpieData std_dev CovalentRadius": 11.313708498984761,
                    "MagpieData minimum Electronegativity": 2.28,
                    "MagpieData maximum Electronegativity": 2.55,
                    "MagpieData range Electronegativity": 0.27,
                    "MagpieData mean Electronegativity": 2.4599999999999995,
                    "MagpieData avg_dev Electronegativity": 0.1200000000000001,
                    "MagpieData mode Electronegativity": 2.55,
                    "MagpieData std_dev Electronegativity": 0.19091883092036785,
                    "MagpieData minimum NsValence": 1.0,
                    "MagpieData maximum NsValence": 2.0,
                    "MagpieData range NsValence": 1.0,
                    "MagpieData mean NsValence": 1.6666666666666665,
                    "MagpieData avg_dev NsValence": 0.4444444444444445,
                    "MagpieData mode NsValence": 2.0,
                    "MagpieData std_dev NsValence": 0.7071067811865476,
                    "MagpieData minimum NpValence": 0.0,
                    "MagpieData maximum NpValence": 4.0,
                    "MagpieData range NpValence": 4.0,
                    "MagpieData mean NpValence": 2.6666666666666665,
                    "MagpieData avg_dev NpValence": 1.7777777777777777,
                    "MagpieData mode NpValence": 4.0,
                    "MagpieData std_dev NpValence": 2.8284271247461903,
                    "MagpieData minimum NdValence": 9.0,
                    "MagpieData maximum NdValence": 10.0,
                    "MagpieData range NdValence": 1.0,
                    "MagpieData mean NdValence": 9.666666666666666,
                    "MagpieData avg_dev NdValence": 0.44444444444444464,
                    "MagpieData mode NdValence": 10.0,
                    "MagpieData std_dev NdValence": 0.7071067811865476,
                    "MagpieData minimum NfValence": 0.0,
                    "MagpieData maximum NfValence": 14.0,
                    "MagpieData range NfValence": 14.0,
                    "MagpieData mean NfValence": 4.666666666666666,
                    "MagpieData avg_dev NfValence": 6.222222222222221,
                    "MagpieData mode NfValence": 0.0,
                    "MagpieData std_dev NfValence": 9.899494936611665,
                    "MagpieData minimum NValence": 16.0,
                    "MagpieData maximum NValence": 24.0,
                    "MagpieData range NValence": 8.0,
                    "MagpieData mean NValence": 18.666666666666664,
                    "MagpieData avg_dev NValence": 3.5555555555555545,
                    "MagpieData mode NValence": 16.0,
                    "MagpieData std_dev NValence": 5.656854249492381,
                    "MagpieData minimum NsUnfilled": 0.0,
                    "MagpieData maximum NsUnfilled": 1.0,
                    "MagpieData range NsUnfilled": 1.0,
                    "MagpieData mean NsUnfilled": 0.3333333333333333,
                    "MagpieData avg_dev NsUnfilled": 0.4444444444444444,
                    "MagpieData mode NsUnfilled": 0.0,
                    "MagpieData std_dev NsUnfilled": 0.7071067811865476,
                    "MagpieData minimum NpUnfilled": 0.0,
                    "MagpieData maximum NpUnfilled": 2.0,
                    "MagpieData range NpUnfilled": 2.0,
                    "MagpieData mean NpUnfilled": 1.3333333333333333,
                    "MagpieData avg_dev NpUnfilled": 0.8888888888888888,
                    "MagpieData mode NpUnfilled": 2.0,
                    "MagpieData std_dev NpUnfilled": 1.4142135623730951,
                    "MagpieData minimum NdUnfilled": 0.0,
                    "MagpieData maximum NdUnfilled": 1.0,
                    "MagpieData range NdUnfilled": 1.0,
                    "MagpieData mean NdUnfilled": 0.3333333333333333,
                    "MagpieData avg_dev NdUnfilled": 0.4444444444444444,
                    "MagpieData mode NdUnfilled": 0.0,
                    "MagpieData std_dev NdUnfilled": 0.7071067811865476,
                    "MagpieData minimum NfUnfilled": 0.0,
                    "MagpieData maximum NfUnfilled": 0.0,
                    "MagpieData range NfUnfilled": 0.0,
                    "MagpieData mean NfUnfilled": 0.0,
                    "MagpieData avg_dev NfUnfilled": 0.0,
                    "MagpieData mode NfUnfilled": 0.0,
                    "MagpieData std_dev NfUnfilled": 0.0,
                    "MagpieData minimum NUnfilled": 2.0,
                    "MagpieData maximum NUnfilled": 2.0,
                    "MagpieData range NUnfilled": 0.0,
                    "MagpieData mean NUnfilled": 2.0,
                    "MagpieData avg_dev NUnfilled": 0.0,
                    "MagpieData mode NUnfilled": 2.0,
                    "MagpieData std_dev NUnfilled": 0.0,
                    "MagpieData minimum GSvolume_pa": 15.02,
                    "MagpieData maximum GSvolume_pa": 25.92,
                    "MagpieData range GSvolume_pa": 10.900000000000002,
                    "MagpieData mean GSvolume_pa": 22.28666666666667,
                    "MagpieData avg_dev GSvolume_pa": 4.844444444444445,
                    "MagpieData mode GSvolume_pa": 25.92,
                    "MagpieData std_dev GSvolume_pa": 7.707463914933369,
                    "MagpieData minimum GSbandgap": 0.0,
                    "MagpieData maximum GSbandgap": 0.799,
                    "MagpieData range GSbandgap": 0.799,
                    "MagpieData mean GSbandgap": 0.5326666666666666,
                    "MagpieData avg_dev GSbandgap": 0.35511111111111116,
                    "MagpieData mode GSbandgap": 0.799,
                    "MagpieData std_dev GSbandgap": 0.5649783181680516,
                    "MagpieData minimum GSmagmom": 0.0,
                    "MagpieData maximum GSmagmom": 0.0,
                    "MagpieData range GSmagmom": 0.0,
                    "MagpieData mean GSmagmom": 0.0,
                    "MagpieData avg_dev GSmagmom": 0.0,
                    "MagpieData mode GSmagmom": 0.0,
                    "MagpieData std_dev GSmagmom": 0.0,
                    "MagpieData minimum SpaceGroupNumber": 14.0,
                    "MagpieData maximum SpaceGroupNumber": 225.0,
                    "MagpieData range SpaceGroupNumber": 211.0,
                    "MagpieData mean SpaceGroupNumber": 84.33333333333333,
                    "MagpieData avg_dev SpaceGroupNumber": 93.77777777777777,
                    "MagpieData mode SpaceGroupNumber": 14.0,
                    "MagpieData std_dev SpaceGroupNumber": 149.19953083036154
                }
            }
        }
    ],
    "test_operating_temperature_celsius": 22.5,
    "min_pH_when_testing": -1.0,
    "max_pH_when_testing": -1.0,
    "test_medium_electrolyte": [
        {
            "substance_name": "oxygen",
            "substance_type": "small molecule",
            "substance_descriptors": {
                "CID": 977,
                "MolecularFormula": "O2",
                "MolecularWeight": "31.999",
                "CanonicalSMILES": "O=O",
                "IsomericSMILES": "O=O",
                "InChI": "InChI=1S/O2/c1-2",
                "InChIKey": "MYMOFIZGZYHOMD-UHFFFAOYSA-N",
                "IUPACName": "molecular oxygen",
                "XLogP": -1.1,
                "ExactMass": "31.989829239",
                "MonoisotopicMass": "31.989829239",
                "TPSA": 34.1,
                "Complexity": 0,
                "Charge": 0,
                "HBondDonorCount": 0,
                "HBondAcceptorCount": 2,
                "RotatableBondCount": 0,
                "HeavyAtomCount": 2,
                "IsotopeAtomCount": 0,
                "AtomStereoCount": 0,
                "DefinedAtomStereoCount": 0,
                "UndefinedAtomStereoCount": 0,
                "BondStereoCount": 0,
                "DefinedBondStereoCount": 0,
                "UndefinedBondStereoCount": 0,
                "CovalentUnitCount": 1,
                "Volume3D": 22.9,
                "XStericQuadrupole3D": 0.87,
                "YStericQuadrupole3D": 0.49,
                "ZStericQuadrupole3D": 0.49,
                "FeatureAcceptorCount3D": 0,
                "FeatureDonorCount3D": 0,
                "FeatureAnionCount3D": 0,
                "FeatureCationCount3D": 0,
                "FeatureRingCount3D": 0,
                "FeatureHydrophobeCount3D": 0,
                "ConformerModelRMSD3D": 0.4,
                "EffectiveRotorCount3D": 0,
                "ConformerCount3D": 1,
                "Morgan_128": [
                    0,
                    0,
                    0,
                    0,
                    0,
                    0,
                    0,
                    0,
                    0,
                    0,
                    1,
                    0,
                    0,
                    0,
                    0,
                    0,
                    1,
                    0,
                    0,
                    0,
                    0,
                    0,
                    0,
                    0,
                    0,
                    0,
                    0,
                    0,
                    0,
                    0,
                    0,
                    0,
                    0,
                    0,
                    0,
                    0,
                    0,
                    0,
                    0,
                    0,
                    0,
                    0,
                    0,
                    0,
                    0,
                    0,
                    0,
                    0,
                    0,
                    0,
                    0,
                    0,
                    0,
                    0,
                    0,
                    0,
                    0,
                    0,
                    0,
                    0,
                    0,
                    0,
                    0,
                    0,
                    0,
                    0,
                    0,
                    0,
                    0,
                    0,
                    0,
                    0,
                    0,
                    0,
                    0,
                    0,
                    0,
                    0,
                    0,
                    0,
                    0,
                    0,
                    0,
                    0,
                    0,
                    0,
                    0,
                    0,
                    0,
                    0,
                    0,
                    0,
                    0,
                    0,
                    0,
                    0,
                    0,
                    0,
                    0,
                    0,
                    0,
                    0,
                    0,
                    0,
                    0,
                    0,
                    0,
                    0,
                    0,
                    0,
                    0,
                    0,
                    0,
                    0,
                    0,
                    0,
                    0,
                    0,
                    0,
                    0,
                    0,
                    0,
                    0,
                    0,
                    0,
                    0,
                    0,
                    0
                ]
            }
        },
        {
            "substance_name": "argon",
            "substance_type": "small molecule",
            "substance_descriptors": {
                "CID": 23968,
                "MolecularFormula": "Ar",
                "MolecularWeight": "39.9",
                "CanonicalSMILES": "[Ar]",
                "IsomericSMILES": "[Ar]",
                "InChI": "InChI=1S/Ar",
                "InChIKey": "XKRFYHLGVUSROY-UHFFFAOYSA-N",
                "IUPACName": "argon",
                "ExactMass": "39.96238312",
                "MonoisotopicMass": "39.96238312",
                "TPSA": 0,
                "Complexity": 0,
                "Charge": 0,
                "HBondDonorCount": 0,
                "HBondAcceptorCount": 0,
                "RotatableBondCount": 0,
                "HeavyAtomCount": 1,
                "IsotopeAtomCount": 0,
                "AtomStereoCount": 0,
                "DefinedAtomStereoCount": 0,
                "UndefinedAtomStereoCount": 0,
                "BondStereoCount": 0,
                "DefinedBondStereoCount": 0,
                "UndefinedBondStereoCount": 0,
                "CovalentUnitCount": 1,
                "ConformerCount3D": 0,
                "Morgan_128": [
                    0,
                    0,
                    0,
                    0,
                    0,
                    0,
                    0,
                    0,
                    0,
                    0,
                    0,
                    0,
                    0,
                    0,
                    0,
                    0,
                    0,
                    0,
                    0,
                    0,
                    0,
                    0,
                    0,
                    0,
                    0,
                    0,
                    0,
                    0,
                    0,
                    0,
                    0,
                    0,
                    0,
                    0,
                    0,
                    0,
                    0,
                    0,
                    0,
                    0,
                    0,
                    1,
                    0,
                    0,
                    0,
                    0,
                    0,
                    0,
                    0,
                    0,
                    0,
                    0,
                    0,
                    0,
                    0,
                    0,
                    0,
                    0,
                    0,
                    0,
                    0,
                    0,
                    0,
                    0,
                    0,
                    0,
                    0,
                    0,
                    0,
                    0,
                    0,
                    0,
                    0,
                    0,
                    0,
                    0,
                    0,
                    0,
                    0,
                    0,
                    0,
                    0,
                    0,
                    0,
                    0,
                    0,
                    0,
                    0,
                    0,
                    0,
                    0,
                    0,
                    0,
                    0,
                    0,
                    0,
                    0,
                    0,
                    0,
                    0,
                    0,
                    0,
                    0,
                    0,
                    0,
                    0,
                    0,
                    0,
                    0,
                    0,
                    0,
                    0,
                    0,
                    0,
                    0,
                    0,
                    0,
                    0,
                    0,
                    0,
                    0,
                    0,
                    0,
                    0,
                    0,
                    0,
                    0,
                    0
                ]
            }
        }
    ],
    "LDL_ranking": 1.0,
    "UDL_ranking": 1.0,
    "LDL_category": "Very High Detection (Low Sensitivity)",
    "UDL_category": "High UDL Range"
}