{
    "DOI": "10.1166/jnn.2017.14039",
    "sensor_type": "gas",
    "detect_target": [
        {
            "substance_name": "sulfur dioxide",
            "substance_type": "small molecule",
            "substance_descriptors": {
                "CID": 1119,
                "MolecularFormula": "O2S",
                "MolecularWeight": "64.07",
                "CanonicalSMILES": "O=S=O",
                "IsomericSMILES": "O=S=O",
                "InChI": "InChI=1S/O2S/c1-3-2",
                "InChIKey": "RAHZWNYVWXNFOC-UHFFFAOYSA-N",
                "IUPACName": "sulfur dioxide",
                "XLogP": 0.1,
                "ExactMass": "63.96190041",
                "MonoisotopicMass": "63.96190041",
                "TPSA": 35.1,
                "Complexity": 18,
                "Charge": 0,
                "HBondDonorCount": 0,
                "HBondAcceptorCount": 3,
                "RotatableBondCount": 0,
                "HeavyAtomCount": 3,
                "IsotopeAtomCount": 0,
                "AtomStereoCount": 0,
                "DefinedAtomStereoCount": 0,
                "UndefinedAtomStereoCount": 0,
                "BondStereoCount": 0,
                "DefinedBondStereoCount": 0,
                "UndefinedBondStereoCount": 0,
                "CovalentUnitCount": 1,
                "Volume3D": 41.3,
                "XStericQuadrupole3D": 1.52,
                "YStericQuadrupole3D": 0.77,
                "ZStericQuadrupole3D": 0.58,
                "FeatureAcceptorCount3D": 0,
                "FeatureDonorCount3D": 0,
                "FeatureAnionCount3D": 0,
                "FeatureCationCount3D": 0,
                "FeatureRingCount3D": 0,
                "FeatureHydrophobeCount3D": 0,
                "ConformerModelRMSD3D": 0.4,
                "EffectiveRotorCount3D": 0,
                "ConformerCount3D": 1,
                "Morgan_128": [
                    0,
                    0,
                    0,
                    0,
                    0,
                    0,
                    0,
                    0,
                    0,
                    0,
                    1,
                    0,
                    0,
                    0,
                    0,
                    0,
                    0,
                    0,
                    0,
                    0,
                    0,
                    0,
                    0,
                    0,
                    0,
                    0,
                    0,
                    0,
                    0,
                    0,
                    0,
                    0,
                    0,
                    0,
                    0,
                    0,
                    0,
                    0,
                    0,
                    0,
                    0,
                    0,
                    1,
                    0,
                    0,
                    0,
                    0,
                    0,
                    0,
                    0,
                    0,
                    0,
                    0,
                    0,
                    0,
                    0,
                    1,
                    0,
                    0,
                    0,
                    0,
                    0,
                    0,
                    0,
                    0,
                    0,
                    0,
                    0,
                    0,
                    0,
                    0,
                    0,
                    0,
                    0,
                    0,
                    0,
                    0,
                    0,
                    0,
                    0,
                    0,
                    0,
                    0,
                    0,
                    0,
                    0,
                    0,
                    0,
                    0,
                    0,
                    0,
                    0,
                    0,
                    0,
                    0,
                    0,
                    0,
                    0,
                    0,
                    0,
                    0,
                    0,
                    0,
                    0,
                    0,
                    0,
                    0,
                    0,
                    0,
                    0,
                    0,
                    0,
                    0,
                    0,
                    0,
                    0,
                    1,
                    0,
                    0,
                    0,
                    0,
                    0,
                    0,
                    0,
                    0,
                    0,
                    0,
                    0
                ]
            }
        }
    ],
    "lower_detection_limit_log_ppm": 0.0,
    "upper_detection_limit_log_ppm": 1.0,
    "probe_material": [
        {
            "substance_name": "tungsten diselenide",
            "substance_type": "inorganic solid",
            "substance_descriptors": {
                "Number of Elements": 2,
                "Element Types": [
                    "W",
                    "Se"
                ],
                "Number of Atoms in Unit Cell": 6,
                "Lattice Parameter a (\u00c5)": "3.29",
                "Lattice Parameter b (\u00c5)": "3.29",
                "Lattice Parameter c (\u00c5)": "12.97",
                "Lattice Angle alpha (degrees)": "90",
                "Lattice Angle beta (degrees)": "90",
                "Lattice Angle gamma (degrees)": "120",
                "Unit Cell Volume (\u00c5\u00b3)": 131.12545319316163,
                "Density (g/cm\u00b3)": 8.65592175403535,
                "Space Group Number": 194,
                "Band Gap (eV)": 1.4465,
                "Is Metallic (1/0)": 0,
                "Formation Energy per Atom (eV)": -0.6036195060416674,
                "Energy Above Hull (eV/atom)": 0.0,
                "Energy per Atom (eV/atom)": -27.267257786666665,
                "Total Magnetization (\u03bcB)": 0.0,
                "Magnetic Ordering": "NM",
                "Bulk Modulus (GPa)": 23.208,
                "Shear Modulus (GPa)": 17.056,
                "Fermi Energy (eV)": 3.4107938,
                "Total Energy (eV)": -5.09339,
                "Crystal System": "hexagonal",
                "Magpie Descriptors": {
                    "MagpieData minimum Number": 34.0,
                    "MagpieData maximum Number": 74.0,
                    "MagpieData range Number": 40.0,
                    "MagpieData mean Number": 47.33333333333333,
                    "MagpieData avg_dev Number": 17.777777777777775,
                    "MagpieData mode Number": 34.0,
                    "MagpieData std_dev Number": 28.284271247461902,
                    "MagpieData minimum MendeleevNumber": 51.0,
                    "MagpieData maximum MendeleevNumber": 89.0,
                    "MagpieData range MendeleevNumber": 38.0,
                    "MagpieData mean MendeleevNumber": 76.33333333333333,
                    "MagpieData avg_dev MendeleevNumber": 16.88888888888889,
                    "MagpieData mode MendeleevNumber": 89.0,
                    "MagpieData std_dev MendeleevNumber": 26.870057685088803,
                    "MagpieData minimum AtomicWeight": 78.96,
                    "MagpieData maximum AtomicWeight": 183.84,
                    "MagpieData range AtomicWeight": 104.88000000000001,
                    "MagpieData mean AtomicWeight": 113.91999999999999,
                    "MagpieData avg_dev AtomicWeight": 46.61333333333333,
                    "MagpieData mode AtomicWeight": 78.96,
                    "MagpieData std_dev AtomicWeight": 74.16135921084512,
                    "MagpieData minimum MeltingT": 494.0,
                    "MagpieData maximum MeltingT": 3695.0,
                    "MagpieData range MeltingT": 3201.0,
                    "MagpieData mean MeltingT": 1560.9999999999998,
                    "MagpieData avg_dev MeltingT": 1422.6666666666665,
                    "MagpieData mode MeltingT": 494.0,
                    "MagpieData std_dev MeltingT": 2263.4488065781384,
                    "MagpieData minimum Column": 6.0,
                    "MagpieData maximum Column": 16.0,
                    "MagpieData range Column": 10.0,
                    "MagpieData mean Column": 12.666666666666666,
                    "MagpieData avg_dev Column": 4.444444444444445,
                    "MagpieData mode Column": 16.0,
                    "MagpieData std_dev Column": 7.0710678118654755,
                    "MagpieData minimum Row": 4.0,
                    "MagpieData maximum Row": 6.0,
                    "MagpieData range Row": 2.0,
                    "MagpieData mean Row": 4.666666666666666,
                    "MagpieData avg_dev Row": 0.8888888888888886,
                    "MagpieData mode Row": 4.0,
                    "MagpieData std_dev Row": 1.4142135623730951,
                    "MagpieData minimum CovalentRadius": 120.0,
                    "MagpieData maximum CovalentRadius": 162.0,
                    "MagpieData range CovalentRadius": 42.0,
                    "MagpieData mean CovalentRadius": 134.0,
                    "MagpieData avg_dev CovalentRadius": 18.666666666666664,
                    "MagpieData mode CovalentRadius": 120.0,
                    "MagpieData std_dev CovalentRadius": 29.698484809834994,
                    "MagpieData minimum Electronegativity": 2.36,
                    "MagpieData maximum Electronegativity": 2.55,
                    "MagpieData range Electronegativity": 0.18999999999999995,
                    "MagpieData mean Electronegativity": 2.4866666666666664,
                    "MagpieData avg_dev Electronegativity": 0.08444444444444446,
                    "MagpieData mode Electronegativity": 2.55,
                    "MagpieData std_dev Electronegativity": 0.134350288425444,
                    "MagpieData minimum NsValence": 2.0,
                    "MagpieData maximum NsValence": 2.0,
                    "MagpieData range NsValence": 0.0,
                    "MagpieData mean NsValence": 2.0,
                    "MagpieData avg_dev NsValence": 0.0,
                    "MagpieData mode NsValence": 2.0,
                    "MagpieData std_dev NsValence": 0.0,
                    "MagpieData minimum NpValence": 0.0,
                    "MagpieData maximum NpValence": 4.0,
                    "MagpieData range NpValence": 4.0,
                    "MagpieData mean NpValence": 2.6666666666666665,
                    "MagpieData avg_dev NpValence": 1.7777777777777777,
                    "MagpieData mode NpValence": 4.0,
                    "MagpieData std_dev NpValence": 2.8284271247461903,
                    "MagpieData minimum NdValence": 4.0,
                    "MagpieData maximum NdValence": 10.0,
                    "MagpieData range NdValence": 6.0,
                    "MagpieData mean NdValence": 7.999999999999999,
                    "MagpieData avg_dev NdValence": 2.666666666666667,
                    "MagpieData mode NdValence": 10.0,
                    "MagpieData std_dev NdValence": 4.242640687119285,
                    "MagpieData minimum NfValence": 0.0,
                    "MagpieData maximum NfValence": 14.0,
                    "MagpieData range NfValence": 14.0,
                    "MagpieData mean NfValence": 4.666666666666666,
                    "MagpieData avg_dev NfValence": 6.222222222222221,
                    "MagpieData mode NfValence": 0.0,
                    "MagpieData std_dev NfValence": 9.899494936611665,
                    "MagpieData minimum NValence": 16.0,
                    "MagpieData maximum NValence": 20.0,
                    "MagpieData range NValence": 4.0,
                    "MagpieData mean NValence": 17.333333333333332,
                    "MagpieData avg_dev NValence": 1.7777777777777772,
                    "MagpieData mode NValence": 16.0,
                    "MagpieData std_dev NValence": 2.8284271247461903,
                    "MagpieData minimum NsUnfilled": 0.0,
                    "MagpieData maximum NsUnfilled": 0.0,
                    "MagpieData range NsUnfilled": 0.0,
                    "MagpieData mean NsUnfilled": 0.0,
                    "MagpieData avg_dev NsUnfilled": 0.0,
                    "MagpieData mode NsUnfilled": 0.0,
                    "MagpieData std_dev NsUnfilled": 0.0,
                    "MagpieData minimum NpUnfilled": 0.0,
                    "MagpieData maximum NpUnfilled": 2.0,
                    "MagpieData range NpUnfilled": 2.0,
                    "MagpieData mean NpUnfilled": 1.3333333333333333,
                    "MagpieData avg_dev NpUnfilled": 0.8888888888888888,
                    "MagpieData mode NpUnfilled": 2.0,
                    "MagpieData std_dev NpUnfilled": 1.4142135623730951,
                    "MagpieData minimum NdUnfilled": 0.0,
                    "MagpieData maximum NdUnfilled": 6.0,
                    "MagpieData range NdUnfilled": 6.0,
                    "MagpieData mean NdUnfilled": 2.0,
                    "MagpieData avg_dev NdUnfilled": 2.6666666666666665,
                    "MagpieData mode NdUnfilled": 0.0,
                    "MagpieData std_dev NdUnfilled": 4.242640687119285,
                    "MagpieData minimum NfUnfilled": 0.0,
                    "MagpieData maximum NfUnfilled": 0.0,
                    "MagpieData range NfUnfilled": 0.0,
                    "MagpieData mean NfUnfilled": 0.0,
                    "MagpieData avg_dev NfUnfilled": 0.0,
                    "MagpieData mode NfUnfilled": 0.0,
                    "MagpieData std_dev NfUnfilled": 0.0,
                    "MagpieData minimum NUnfilled": 2.0,
                    "MagpieData maximum NUnfilled": 6.0,
                    "MagpieData range NUnfilled": 4.0,
                    "MagpieData mean NUnfilled": 3.333333333333333,
                    "MagpieData avg_dev NUnfilled": 1.7777777777777777,
                    "MagpieData mode NUnfilled": 2.0,
                    "MagpieData std_dev NUnfilled": 2.8284271247461903,
                    "MagpieData minimum GSvolume_pa": 16.05,
                    "MagpieData maximum GSvolume_pa": 25.92,
                    "MagpieData range GSvolume_pa": 9.870000000000001,
                    "MagpieData mean GSvolume_pa": 22.630000000000003,
                    "MagpieData avg_dev GSvolume_pa": 4.386666666666667,
                    "MagpieData mode GSvolume_pa": 25.92,
                    "MagpieData std_dev GSvolume_pa": 6.979143930311224,
                    "MagpieData minimum GSbandgap": 0.0,
                    "MagpieData maximum GSbandgap": 0.799,
                    "MagpieData range GSbandgap": 0.799,
                    "MagpieData mean GSbandgap": 0.5326666666666666,
                    "MagpieData avg_dev GSbandgap": 0.35511111111111116,
                    "MagpieData mode GSbandgap": 0.799,
                    "MagpieData std_dev GSbandgap": 0.5649783181680516,
                    "MagpieData minimum GSmagmom": 0.0,
                    "MagpieData maximum GSmagmom": 0.0,
                    "MagpieData range GSmagmom": 0.0,
                    "MagpieData mean GSmagmom": 0.0,
                    "MagpieData avg_dev GSmagmom": 0.0,
                    "MagpieData mode GSmagmom": 0.0,
                    "MagpieData std_dev GSmagmom": 0.0,
                    "MagpieData minimum SpaceGroupNumber": 14.0,
                    "MagpieData maximum SpaceGroupNumber": 229.0,
                    "MagpieData range SpaceGroupNumber": 215.0,
                    "MagpieData mean SpaceGroupNumber": 85.66666666666666,
                    "MagpieData avg_dev SpaceGroupNumber": 95.55555555555554,
                    "MagpieData mode SpaceGroupNumber": 14.0,
                    "MagpieData std_dev SpaceGroupNumber": 152.02795795510772
                }
            }
        }
    ],
    "test_operating_temperature_celsius": 26.25,
    "min_pH_when_testing": -1.0,
    "max_pH_when_testing": -1.0,
    "test_medium_electrolyte": [
        {
            "substance_name": "oxygen",
            "substance_type": "small molecule",
            "substance_descriptors": {
                "CID": 977,
                "MolecularFormula": "O2",
                "MolecularWeight": "31.999",
                "CanonicalSMILES": "O=O",
                "IsomericSMILES": "O=O",
                "InChI": "InChI=1S/O2/c1-2",
                "InChIKey": "MYMOFIZGZYHOMD-UHFFFAOYSA-N",
                "IUPACName": "molecular oxygen",
                "XLogP": -1.1,
                "ExactMass": "31.989829239",
                "MonoisotopicMass": "31.989829239",
                "TPSA": 34.1,
                "Complexity": 0,
                "Charge": 0,
                "HBondDonorCount": 0,
                "HBondAcceptorCount": 2,
                "RotatableBondCount": 0,
                "HeavyAtomCount": 2,
                "IsotopeAtomCount": 0,
                "AtomStereoCount": 0,
                "DefinedAtomStereoCount": 0,
                "UndefinedAtomStereoCount": 0,
                "BondStereoCount": 0,
                "DefinedBondStereoCount": 0,
                "UndefinedBondStereoCount": 0,
                "CovalentUnitCount": 1,
                "Volume3D": 22.9,
                "XStericQuadrupole3D": 0.87,
                "YStericQuadrupole3D": 0.49,
                "ZStericQuadrupole3D": 0.49,
                "FeatureAcceptorCount3D": 0,
                "FeatureDonorCount3D": 0,
                "FeatureAnionCount3D": 0,
                "FeatureCationCount3D": 0,
                "FeatureRingCount3D": 0,
                "FeatureHydrophobeCount3D": 0,
                "ConformerModelRMSD3D": 0.4,
                "EffectiveRotorCount3D": 0,
                "ConformerCount3D": 1,
                "Morgan_128": [
                    0,
                    0,
                    0,
                    0,
                    0,
                    0,
                    0,
                    0,
                    0,
                    0,
                    1,
                    0,
                    0,
                    0,
                    0,
                    0,
                    1,
                    0,
                    0,
                    0,
                    0,
                    0,
                    0,
                    0,
                    0,
                    0,
                    0,
                    0,
                    0,
                    0,
                    0,
                    0,
                    0,
                    0,
                    0,
                    0,
                    0,
                    0,
                    0,
                    0,
                    0,
                    0,
                    0,
                    0,
                    0,
                    0,
                    0,
                    0,
                    0,
                    0,
                    0,
                    0,
                    0,
                    0,
                    0,
                    0,
                    0,
                    0,
                    0,
                    0,
                    0,
                    0,
                    0,
                    0,
                    0,
                    0,
                    0,
                    0,
                    0,
                    0,
                    0,
                    0,
                    0,
                    0,
                    0,
                    0,
                    0,
                    0,
                    0,
                    0,
                    0,
                    0,
                    0,
                    0,
                    0,
                    0,
                    0,
                    0,
                    0,
                    0,
                    0,
                    0,
                    0,
                    0,
                    0,
                    0,
                    0,
                    0,
                    0,
                    0,
                    0,
                    0,
                    0,
                    0,
                    0,
                    0,
                    0,
                    0,
                    0,
                    0,
                    0,
                    0,
                    0,
                    0,
                    0,
                    0,
                    0,
                    0,
                    0,
                    0,
                    0,
                    0,
                    0,
                    0,
                    0,
                    0,
                    0,
                    0
                ]
            }
        },
        {
            "substance_name": "argon",
            "substance_type": "small molecule",
            "substance_descriptors": {
                "CID": 23968,
                "MolecularFormula": "Ar",
                "MolecularWeight": "39.9",
                "CanonicalSMILES": "[Ar]",
                "IsomericSMILES": "[Ar]",
                "InChI": "InChI=1S/Ar",
                "InChIKey": "XKRFYHLGVUSROY-UHFFFAOYSA-N",
                "IUPACName": "argon",
                "ExactMass": "39.96238312",
                "MonoisotopicMass": "39.96238312",
                "TPSA": 0,
                "Complexity": 0,
                "Charge": 0,
                "HBondDonorCount": 0,
                "HBondAcceptorCount": 0,
                "RotatableBondCount": 0,
                "HeavyAtomCount": 1,
                "IsotopeAtomCount": 0,
                "AtomStereoCount": 0,
                "DefinedAtomStereoCount": 0,
                "UndefinedAtomStereoCount": 0,
                "BondStereoCount": 0,
                "DefinedBondStereoCount": 0,
                "UndefinedBondStereoCount": 0,
                "CovalentUnitCount": 1,
                "ConformerCount3D": 0,
                "Morgan_128": [
                    0,
                    0,
                    0,
                    0,
                    0,
                    0,
                    0,
                    0,
                    0,
                    0,
                    0,
                    0,
                    0,
                    0,
                    0,
                    0,
                    0,
                    0,
                    0,
                    0,
                    0,
                    0,
                    0,
                    0,
                    0,
                    0,
                    0,
                    0,
                    0,
                    0,
                    0,
                    0,
                    0,
                    0,
                    0,
                    0,
                    0,
                    0,
                    0,
                    0,
                    0,
                    1,
                    0,
                    0,
                    0,
                    0,
                    0,
                    0,
                    0,
                    0,
                    0,
                    0,
                    0,
                    0,
                    0,
                    0,
                    0,
                    0,
                    0,
                    0,
                    0,
                    0,
                    0,
                    0,
                    0,
                    0,
                    0,
                    0,
                    0,
                    0,
                    0,
                    0,
                    0,
                    0,
                    0,
                    0,
                    0,
                    0,
                    0,
                    0,
                    0,
                    0,
                    0,
                    0,
                    0,
                    0,
                    0,
                    0,
                    0,
                    0,
                    0,
                    0,
                    0,
                    0,
                    0,
                    0,
                    0,
                    0,
                    0,
                    0,
                    0,
                    0,
                    0,
                    0,
                    0,
                    0,
                    0,
                    0,
                    0,
                    0,
                    0,
                    0,
                    0,
                    0,
                    0,
                    0,
                    0,
                    0,
                    0,
                    0,
                    0,
                    0,
                    0,
                    0,
                    0,
                    0,
                    0,
                    0
                ]
            }
        }
    ],
    "LDL_ranking": 1.0,
    "UDL_ranking": 1.0,
    "LDL_category": "High Detection (Lower Sensitivity)",
    "UDL_category": "Moderate UDL Range"
}