{
    "DOI": "10.1016/j.matchemphys.2010.09.040",
    "sensor_type": "liquid",
    "detect_target": [
        {
            "substance_name": "h+",
            "substance_type": "small molecule",
            "substance_descriptors": {
                "CID": 1038,
                "MolecularFormula": "H+",
                "MolecularWeight": "1.0080",
                "CanonicalSMILES": "[H+]",
                "IsomericSMILES": "[H+]",
                "InChI": "InChI=1S/p+1",
                "InChIKey": "GPRLSGONYQIRFK-UHFFFAOYSA-N",
                "IUPACName": "hydron",
                "XLogP": 0,
                "ExactMass": "1.0078250319",
                "MonoisotopicMass": "1.0078250319",
                "TPSA": 0,
                "Complexity": 0,
                "Charge": 1,
                "HBondDonorCount": 1,
                "HBondAcceptorCount": 0,
                "RotatableBondCount": 0,
                "HeavyAtomCount": 0,
                "IsotopeAtomCount": 0,
                "AtomStereoCount": 0,
                "DefinedAtomStereoCount": 0,
                "UndefinedAtomStereoCount": 0,
                "BondStereoCount": 0,
                "DefinedBondStereoCount": 0,
                "UndefinedBondStereoCount": 0,
                "CovalentUnitCount": 1,
                "ConformerCount3D": 0,
                "Morgan_128": [
                    0,
                    0,
                    0,
                    0,
                    0,
                    0,
                    0,
                    0,
                    0,
                    0,
                    0,
                    0,
                    0,
                    0,
                    0,
                    0,
                    0,
                    0,
                    0,
                    0,
                    0,
                    0,
                    0,
                    0,
                    0,
                    0,
                    0,
                    0,
                    0,
                    0,
                    0,
                    0,
                    0,
                    0,
                    0,
                    0,
                    0,
                    0,
                    0,
                    0,
                    1,
                    0,
                    0,
                    0,
                    0,
                    0,
                    0,
                    0,
                    0,
                    0,
                    0,
                    0,
                    0,
                    0,
                    0,
                    0,
                    0,
                    0,
                    0,
                    0,
                    0,
                    0,
                    0,
                    0,
                    0,
                    0,
                    0,
                    0,
                    0,
                    0,
                    0,
                    0,
                    0,
                    0,
                    0,
                    0,
                    0,
                    0,
                    0,
                    0,
                    0,
                    0,
                    0,
                    0,
                    0,
                    0,
                    0,
                    0,
                    0,
                    0,
                    0,
                    0,
                    0,
                    0,
                    0,
                    0,
                    0,
                    0,
                    0,
                    0,
                    0,
                    0,
                    0,
                    0,
                    0,
                    0,
                    0,
                    0,
                    0,
                    0,
                    0,
                    0,
                    0,
                    0,
                    0,
                    0,
                    0,
                    0,
                    0,
                    0,
                    0,
                    0,
                    0,
                    0,
                    0,
                    0,
                    0,
                    0
                ]
            }
        }
    ],
    "lower_detection_limit_log_ppm": -9.0,
    "upper_detection_limit_log_ppm": 1.0,
    "probe_material": [
        {
            "substance_name": "vanadium pentoxide",
            "substance_type": "inorganic solid",
            "substance_descriptors": {
                "Number of Elements": 2,
                "Element Types": [
                    "O",
                    "V"
                ],
                "Number of Atoms in Unit Cell": 14,
                "Lattice Parameter a (\u00c5)": "11.498",
                "Lattice Parameter b (\u00c5)": "3.545",
                "Lattice Parameter c (\u00c5)": "4.345",
                "Lattice Angle alpha (degrees)": "90",
                "Lattice Angle beta (degrees)": "90",
                "Lattice Angle gamma (degrees)": "90",
                "Unit Cell Volume (\u00c5\u00b3)": 175.71849611799263,
                "Density (g/cm\u00b3)": 3.4375305059565995,
                "Space Group Number": 59,
                "Band Gap (eV)": 2.2826000000000004,
                "Is Metallic (1/0)": 0,
                "Formation Energy per Atom (eV)": -2.2859484475000005,
                "Energy Above Hull (eV/atom)": 0.0,
                "Energy per Atom (eV/atom)": -8.418681412142858,
                "Total Magnetization (\u03bcB)": 0.0,
                "Magnetic Ordering": "NM",
                "Bulk Modulus (GPa)": 102.02,
                "Shear Modulus (GPa)": 40.45,
                "Fermi Energy (eV)": -1.04623867,
                "Total Energy (eV)": -6.34073,
                "Crystal System": "orthorhombic",
                "Magpie Descriptors": {
                    "MagpieData minimum Number": 8.0,
                    "MagpieData maximum Number": 23.0,
                    "MagpieData range Number": 15.0,
                    "MagpieData mean Number": 18.714285714285715,
                    "MagpieData avg_dev Number": 6.122448979591836,
                    "MagpieData mode Number": 23.0,
                    "MagpieData std_dev Number": 10.606601717798211,
                    "MagpieData minimum MendeleevNumber": 46.0,
                    "MagpieData maximum MendeleevNumber": 87.0,
                    "MagpieData range MendeleevNumber": 41.0,
                    "MagpieData mean MendeleevNumber": 57.714285714285715,
                    "MagpieData avg_dev MendeleevNumber": 16.734693877551024,
                    "MagpieData mode MendeleevNumber": 46.0,
                    "MagpieData std_dev MendeleevNumber": 28.991378028648448,
                    "MagpieData minimum AtomicWeight": 15.9994,
                    "MagpieData maximum AtomicWeight": 50.9415,
                    "MagpieData range AtomicWeight": 34.942099999999996,
                    "MagpieData mean AtomicWeight": 40.95804285714286,
                    "MagpieData avg_dev AtomicWeight": 14.262081632653059,
                    "MagpieData mode AtomicWeight": 50.9415,
                    "MagpieData std_dev AtomicWeight": 24.70779585889846,
                    "MagpieData minimum MeltingT": 54.8,
                    "MagpieData maximum MeltingT": 2183.0,
                    "MagpieData range MeltingT": 2128.2,
                    "MagpieData mean MeltingT": 1574.942857142857,
                    "MagpieData avg_dev MeltingT": 868.6530612244899,
                    "MagpieData mode MeltingT": 2183.0,
                    "MagpieData std_dev MeltingT": 1504.8646517212103,
                    "MagpieData minimum Column": 5.0,
                    "MagpieData maximum Column": 16.0,
                    "MagpieData range Column": 11.0,
                    "MagpieData mean Column": 8.142857142857142,
                    "MagpieData avg_dev Column": 4.489795918367347,
                    "MagpieData mode Column": 5.0,
                    "MagpieData std_dev Column": 7.7781745930520225,
                    "MagpieData minimum Row": 2.0,
                    "MagpieData maximum Row": 4.0,
                    "MagpieData range Row": 2.0,
                    "MagpieData mean Row": 3.428571428571429,
                    "MagpieData avg_dev Row": 0.8163265306122448,
                    "MagpieData mode Row": 4.0,
                    "MagpieData std_dev Row": 1.414213562373095,
                    "MagpieData minimum CovalentRadius": 66.0,
                    "MagpieData maximum CovalentRadius": 153.0,
                    "MagpieData range CovalentRadius": 87.0,
                    "MagpieData mean CovalentRadius": 128.14285714285714,
                    "MagpieData avg_dev CovalentRadius": 35.51020408163265,
                    "MagpieData mode CovalentRadius": 153.0,
                    "MagpieData std_dev CovalentRadius": 61.51828996322963,
                    "MagpieData minimum Electronegativity": 1.63,
                    "MagpieData maximum Electronegativity": 3.44,
                    "MagpieData range Electronegativity": 1.81,
                    "MagpieData mean Electronegativity": 2.147142857142857,
                    "MagpieData avg_dev Electronegativity": 0.7387755102040815,
                    "MagpieData mode Electronegativity": 1.63,
                    "MagpieData std_dev Electronegativity": 1.279863273947651,
                    "MagpieData minimum NsValence": 2.0,
                    "MagpieData maximum NsValence": 2.0,
                    "MagpieData range NsValence": 0.0,
                    "MagpieData mean NsValence": 2.0,
                    "MagpieData avg_dev NsValence": 0.0,
                    "MagpieData mode NsValence": 2.0,
                    "MagpieData std_dev NsValence": 0.0,
                    "MagpieData minimum NpValence": 0.0,
                    "MagpieData maximum NpValence": 4.0,
                    "MagpieData range NpValence": 4.0,
                    "MagpieData mean NpValence": 1.1428571428571428,
                    "MagpieData avg_dev NpValence": 1.6326530612244898,
                    "MagpieData mode NpValence": 0.0,
                    "MagpieData std_dev NpValence": 2.82842712474619,
                    "MagpieData minimum NdValence": 0.0,
                    "MagpieData maximum NdValence": 3.0,
                    "MagpieData range NdValence": 3.0,
                    "MagpieData mean NdValence": 2.142857142857143,
                    "MagpieData avg_dev NdValence": 1.2244897959183674,
                    "MagpieData mode NdValence": 3.0,
                    "MagpieData std_dev NdValence": 2.1213203435596424,
                    "MagpieData minimum NfValence": 0.0,
                    "MagpieData maximum NfValence": 0.0,
                    "MagpieData range NfValence": 0.0,
                    "MagpieData mean NfValence": 0.0,
                    "MagpieData avg_dev NfValence": 0.0,
                    "MagpieData mode NfValence": 0.0,
                    "MagpieData std_dev NfValence": 0.0,
                    "MagpieData minimum NValence": 5.0,
                    "MagpieData maximum NValence": 6.0,
                    "MagpieData range NValence": 1.0,
                    "MagpieData mean NValence": 5.285714285714286,
                    "MagpieData avg_dev NValence": 0.4081632653061224,
                    "MagpieData mode NValence": 5.0,
                    "MagpieData std_dev NValence": 0.7071067811865475,
                    "MagpieData minimum NsUnfilled": 0.0,
                    "MagpieData maximum NsUnfilled": 0.0,
                    "MagpieData range NsUnfilled": 0.0,
                    "MagpieData mean NsUnfilled": 0.0,
                    "MagpieData avg_dev NsUnfilled": 0.0,
                    "MagpieData mode NsUnfilled": 0.0,
                    "MagpieData std_dev NsUnfilled": 0.0,
                    "MagpieData minimum NpUnfilled": 0.0,
                    "MagpieData maximum NpUnfilled": 2.0,
                    "MagpieData range NpUnfilled": 2.0,
                    "MagpieData mean NpUnfilled": 0.5714285714285714,
                    "MagpieData avg_dev NpUnfilled": 0.8163265306122449,
                    "MagpieData mode NpUnfilled": 0.0,
                    "MagpieData std_dev NpUnfilled": 1.414213562373095,
                    "MagpieData minimum NdUnfilled": 0.0,
                    "MagpieData maximum NdUnfilled": 7.0,
                    "MagpieData range NdUnfilled": 7.0,
                    "MagpieData mean NdUnfilled": 5.0,
                    "MagpieData avg_dev NdUnfilled": 2.8571428571428568,
                    "MagpieData mode NdUnfilled": 7.0,
                    "MagpieData std_dev NdUnfilled": 4.949747468305833,
                    "MagpieData minimum NfUnfilled": 0.0,
                    "MagpieData maximum NfUnfilled": 0.0,
                    "MagpieData range NfUnfilled": 0.0,
                    "MagpieData mean NfUnfilled": 0.0,
                    "MagpieData avg_dev NfUnfilled": 0.0,
                    "MagpieData mode NfUnfilled": 0.0,
                    "MagpieData std_dev NfUnfilled": 0.0,
                    "MagpieData minimum NUnfilled": 2.0,
                    "MagpieData maximum NUnfilled": 7.0,
                    "MagpieData range NUnfilled": 5.0,
                    "MagpieData mean NUnfilled": 5.571428571428571,
                    "MagpieData avg_dev NUnfilled": 2.0408163265306123,
                    "MagpieData mode NUnfilled": 7.0,
                    "MagpieData std_dev NUnfilled": 3.5355339059327373,
                    "MagpieData minimum GSvolume_pa": 9.105,
                    "MagpieData maximum GSvolume_pa": 13.01,
                    "MagpieData range GSvolume_pa": 3.9049999999999994,
                    "MagpieData mean GSvolume_pa": 11.894285714285715,
                    "MagpieData avg_dev GSvolume_pa": 1.5938775510204075,
                    "MagpieData mode GSvolume_pa": 13.01,
                    "MagpieData std_dev GSvolume_pa": 2.7612519805334674,
                    "MagpieData minimum GSbandgap": 0.0,
                    "MagpieData maximum GSbandgap": 0.0,
                    "MagpieData range GSbandgap": 0.0,
                    "MagpieData mean GSbandgap": 0.0,
                    "MagpieData avg_dev GSbandgap": 0.0,
                    "MagpieData mode GSbandgap": 0.0,
                    "MagpieData std_dev GSbandgap": 0.0,
                    "MagpieData minimum GSmagmom": 0.0,
                    "MagpieData maximum GSmagmom": 0.0,
                    "MagpieData range GSmagmom": 0.0,
                    "MagpieData mean GSmagmom": 0.0,
                    "MagpieData avg_dev GSmagmom": 0.0,
                    "MagpieData mode GSmagmom": 0.0,
                    "MagpieData std_dev GSmagmom": 0.0,
                    "MagpieData minimum SpaceGroupNumber": 12.0,
                    "MagpieData maximum SpaceGroupNumber": 229.0,
                    "MagpieData range SpaceGroupNumber": 217.0,
                    "MagpieData mean SpaceGroupNumber": 167.0,
                    "MagpieData avg_dev SpaceGroupNumber": 88.57142857142857,
                    "MagpieData mode SpaceGroupNumber": 229.0,
                    "MagpieData std_dev SpaceGroupNumber": 153.4421715174808
                }
            }
        },
        {
            "substance_name": "tungsten trioxide",
            "substance_type": "inorganic solid",
            "substance_descriptors": {
                "Number of Elements": 2,
                "Element Types": [
                    "W",
                    "O"
                ],
                "Number of Atoms in Unit Cell": 16,
                "Lattice Parameter a (\u00c5)": "5.261",
                "Lattice Parameter b (\u00c5)": "5.128",
                "Lattice Parameter c (\u00c5)": "7.65",
                "Lattice Angle alpha (degrees)": "90",
                "Lattice Angle beta (degrees)": "92.05",
                "Lattice Angle gamma (degrees)": "90",
                "Unit Cell Volume (\u00c5\u00b3)": 212.4837403676545,
                "Density (g/cm\u00b3)": 7.2471688904592995,
                "Space Group Number": 113,
                "Band Gap (eV)": 1.657,
                "Is Metallic (1/0)": 0,
                "Formation Energy per Atom (eV)": -2.1803868643749995,
                "Energy Above Hull (eV/atom)": 0.007246704062499276,
                "Energy per Atom (eV/atom)": -9.13411721375,
                "Total Magnetization (\u03bcB)": 0.0,
                "Magnetic Ordering": "NM",
                "Bulk Modulus (GPa)": 165.36,
                "Shear Modulus (GPa)": 43.27,
                "Fermi Energy (eV)": 0.35980451,
                "Total Energy (eV)": -7.27122,
                "Crystal System": "tetragonal",
                "Magpie Descriptors": {
                    "MagpieData minimum Number": 8.0,
                    "MagpieData maximum Number": 74.0,
                    "MagpieData range Number": 66.0,
                    "MagpieData mean Number": 24.5,
                    "MagpieData avg_dev Number": 24.75,
                    "MagpieData mode Number": 8.0,
                    "MagpieData std_dev Number": 46.66904755831214,
                    "MagpieData minimum MendeleevNumber": 51.0,
                    "MagpieData maximum MendeleevNumber": 87.0,
                    "MagpieData range MendeleevNumber": 36.0,
                    "MagpieData mean MendeleevNumber": 78.0,
                    "MagpieData avg_dev MendeleevNumber": 13.5,
                    "MagpieData mode MendeleevNumber": 87.0,
                    "MagpieData std_dev MendeleevNumber": 25.45584412271571,
                    "MagpieData minimum AtomicWeight": 15.9994,
                    "MagpieData maximum AtomicWeight": 183.84,
                    "MagpieData range AtomicWeight": 167.8406,
                    "MagpieData mean AtomicWeight": 57.95955,
                    "MagpieData avg_dev AtomicWeight": 62.940225,
                    "MagpieData mode AtomicWeight": 15.9994,
                    "MagpieData std_dev AtomicWeight": 118.68122641841885,
                    "MagpieData minimum MeltingT": 54.8,
                    "MagpieData maximum MeltingT": 3695.0,
                    "MagpieData range MeltingT": 3640.2,
                    "MagpieData mean MeltingT": 964.85,
                    "MagpieData avg_dev MeltingT": 1365.075,
                    "MagpieData mode MeltingT": 54.8,
                    "MagpieData std_dev MeltingT": 2574.0101048752704,
                    "MagpieData minimum Column": 6.0,
                    "MagpieData maximum Column": 16.0,
                    "MagpieData range Column": 10.0,
                    "MagpieData mean Column": 13.5,
                    "MagpieData avg_dev Column": 3.75,
                    "MagpieData mode Column": 16.0,
                    "MagpieData std_dev Column": 7.0710678118654755,
                    "MagpieData minimum Row": 2.0,
                    "MagpieData maximum Row": 6.0,
                    "MagpieData range Row": 4.0,
                    "MagpieData mean Row": 3.0,
                    "MagpieData avg_dev Row": 1.5,
                    "MagpieData mode Row": 2.0,
                    "MagpieData std_dev Row": 2.8284271247461903,
                    "MagpieData minimum CovalentRadius": 66.0,
                    "MagpieData maximum CovalentRadius": 162.0,
                    "MagpieData range CovalentRadius": 96.0,
                    "MagpieData mean CovalentRadius": 90.0,
                    "MagpieData avg_dev CovalentRadius": 36.0,
                    "MagpieData mode CovalentRadius": 66.0,
                    "MagpieData std_dev CovalentRadius": 67.88225099390856,
                    "MagpieData minimum Electronegativity": 2.36,
                    "MagpieData maximum Electronegativity": 3.44,
                    "MagpieData range Electronegativity": 1.08,
                    "MagpieData mean Electronegativity": 3.17,
                    "MagpieData avg_dev Electronegativity": 0.405,
                    "MagpieData mode Electronegativity": 3.44,
                    "MagpieData std_dev Electronegativity": 0.7636753236814714,
                    "MagpieData minimum NsValence": 2.0,
                    "MagpieData maximum NsValence": 2.0,
                    "MagpieData range NsValence": 0.0,
                    "MagpieData mean NsValence": 2.0,
                    "MagpieData avg_dev NsValence": 0.0,
                    "MagpieData mode NsValence": 2.0,
                    "MagpieData std_dev NsValence": 0.0,
                    "MagpieData minimum NpValence": 0.0,
                    "MagpieData maximum NpValence": 4.0,
                    "MagpieData range NpValence": 4.0,
                    "MagpieData mean NpValence": 3.0,
                    "MagpieData avg_dev NpValence": 1.5,
                    "MagpieData mode NpValence": 4.0,
                    "MagpieData std_dev NpValence": 2.8284271247461903,
                    "MagpieData minimum NdValence": 0.0,
                    "MagpieData maximum NdValence": 4.0,
                    "MagpieData range NdValence": 4.0,
                    "MagpieData mean NdValence": 1.0,
                    "MagpieData avg_dev NdValence": 1.5,
                    "MagpieData mode NdValence": 0.0,
                    "MagpieData std_dev NdValence": 2.8284271247461903,
                    "MagpieData minimum NfValence": 0.0,
                    "MagpieData maximum NfValence": 14.0,
                    "MagpieData range NfValence": 14.0,
                    "MagpieData mean NfValence": 3.5,
                    "MagpieData avg_dev NfValence": 5.25,
                    "MagpieData mode NfValence": 0.0,
                    "MagpieData std_dev NfValence": 9.899494936611665,
                    "MagpieData minimum NValence": 6.0,
                    "MagpieData maximum NValence": 20.0,
                    "MagpieData range NValence": 14.0,
                    "MagpieData mean NValence": 9.5,
                    "MagpieData avg_dev NValence": 5.25,
                    "MagpieData mode NValence": 6.0,
                    "MagpieData std_dev NValence": 9.899494936611665,
                    "MagpieData minimum NsUnfilled": 0.0,
                    "MagpieData maximum NsUnfilled": 0.0,
                    "MagpieData range NsUnfilled": 0.0,
                    "MagpieData mean NsUnfilled": 0.0,
                    "MagpieData avg_dev NsUnfilled": 0.0,
                    "MagpieData mode NsUnfilled": 0.0,
                    "MagpieData std_dev NsUnfilled": 0.0,
                    "MagpieData minimum NpUnfilled": 0.0,
                    "MagpieData maximum NpUnfilled": 2.0,
                    "MagpieData range NpUnfilled": 2.0,
                    "MagpieData mean NpUnfilled": 1.5,
                    "MagpieData avg_dev NpUnfilled": 0.75,
                    "MagpieData mode NpUnfilled": 2.0,
                    "MagpieData std_dev NpUnfilled": 1.4142135623730951,
                    "MagpieData minimum NdUnfilled": 0.0,
                    "MagpieData maximum NdUnfilled": 6.0,
                    "MagpieData range NdUnfilled": 6.0,
                    "MagpieData mean NdUnfilled": 1.5,
                    "MagpieData avg_dev NdUnfilled": 2.25,
                    "MagpieData mode NdUnfilled": 0.0,
                    "MagpieData std_dev NdUnfilled": 4.242640687119285,
                    "MagpieData minimum NfUnfilled": 0.0,
                    "MagpieData maximum NfUnfilled": 0.0,
                    "MagpieData range NfUnfilled": 0.0,
                    "MagpieData mean NfUnfilled": 0.0,
                    "MagpieData avg_dev NfUnfilled": 0.0,
                    "MagpieData mode NfUnfilled": 0.0,
                    "MagpieData std_dev NfUnfilled": 0.0,
                    "MagpieData minimum NUnfilled": 2.0,
                    "MagpieData maximum NUnfilled": 6.0,
                    "MagpieData range NUnfilled": 4.0,
                    "MagpieData mean NUnfilled": 3.0,
                    "MagpieData avg_dev NUnfilled": 1.5,
                    "MagpieData mode NUnfilled": 2.0,
                    "MagpieData std_dev NUnfilled": 2.8284271247461903,
                    "MagpieData minimum GSvolume_pa": 9.105,
                    "MagpieData maximum GSvolume_pa": 16.05,
                    "MagpieData range GSvolume_pa": 6.945,
                    "MagpieData mean GSvolume_pa": 10.84125,
                    "MagpieData avg_dev GSvolume_pa": 2.604375,
                    "MagpieData mode GSvolume_pa": 9.105,
                    "MagpieData std_dev GSvolume_pa": 4.910856595340573,
                    "MagpieData minimum GSbandgap": 0.0,
                    "MagpieData maximum GSbandgap": 0.0,
                    "MagpieData range GSbandgap": 0.0,
                    "MagpieData mean GSbandgap": 0.0,
                    "MagpieData avg_dev GSbandgap": 0.0,
                    "MagpieData mode GSbandgap": 0.0,
                    "MagpieData std_dev GSbandgap": 0.0,
                    "MagpieData minimum GSmagmom": 0.0,
                    "MagpieData maximum GSmagmom": 0.0,
                    "MagpieData range GSmagmom": 0.0,
                    "MagpieData mean GSmagmom": 0.0,
                    "MagpieData avg_dev GSmagmom": 0.0,
                    "MagpieData mode GSmagmom": 0.0,
                    "MagpieData std_dev GSmagmom": 0.0,
                    "MagpieData minimum SpaceGroupNumber": 12.0,
                    "MagpieData maximum SpaceGroupNumber": 229.0,
                    "MagpieData range SpaceGroupNumber": 217.0,
                    "MagpieData mean SpaceGroupNumber": 66.25,
                    "MagpieData avg_dev SpaceGroupNumber": 81.375,
                    "MagpieData mode SpaceGroupNumber": 12.0,
                    "MagpieData std_dev SpaceGroupNumber": 153.4421715174808
                }
            }
        }
    ],
    "test_operating_temperature_celsius": 23.75,
    "min_pH_when_testing": 2.0,
    "max_pH_when_testing": 12.0,
    "test_medium_electrolyte": [
        {
            "substance_name": "water",
            "substance_type": "small molecule",
            "substance_descriptors": {
                "CID": 962,
                "MolecularFormula": "H2O",
                "MolecularWeight": "18.015",
                "CanonicalSMILES": "O",
                "IsomericSMILES": "O",
                "InChI": "InChI=1S/H2O/h1H2",
                "InChIKey": "XLYOFNOQVPJJNP-UHFFFAOYSA-N",
                "IUPACName": "oxidane",
                "XLogP": -0.5,
                "ExactMass": "18.010564683",
                "MonoisotopicMass": "18.010564683",
                "TPSA": 1,
                "Complexity": 0,
                "Charge": 0,
                "HBondDonorCount": 1,
                "HBondAcceptorCount": 1,
                "RotatableBondCount": 0,
                "HeavyAtomCount": 1,
                "IsotopeAtomCount": 0,
                "AtomStereoCount": 0,
                "DefinedAtomStereoCount": 0,
                "UndefinedAtomStereoCount": 0,
                "BondStereoCount": 0,
                "DefinedBondStereoCount": 0,
                "UndefinedBondStereoCount": 0,
                "CovalentUnitCount": 1,
                "Volume3D": 14.7,
                "XStericQuadrupole3D": 0.49,
                "YStericQuadrupole3D": 0.49,
                "ZStericQuadrupole3D": 0.49,
                "FeatureAcceptorCount3D": 1,
                "FeatureDonorCount3D": 1,
                "FeatureAnionCount3D": 0,
                "FeatureCationCount3D": 0,
                "FeatureRingCount3D": 0,
                "FeatureHydrophobeCount3D": 0,
                "ConformerModelRMSD3D": 0.4,
                "EffectiveRotorCount3D": 0,
                "ConformerCount3D": 1,
                "Morgan_128": [
                    0,
                    0,
                    0,
                    0,
                    0,
                    0,
                    0,
                    0,
                    0,
                    0,
                    0,
                    0,
                    0,
                    0,
                    0,
                    0,
                    0,
                    0,
                    0,
                    0,
                    0,
                    0,
                    1,
                    0,
                    0,
                    0,
                    0,
                    0,
                    0,
                    0,
                    0,
                    0,
                    0,
                    0,
                    0,
                    0,
                    0,
                    0,
                    0,
                    0,
                    0,
                    0,
                    0,
                    0,
                    0,
                    0,
                    0,
                    0,
                    0,
                    0,
                    0,
                    0,
                    0,
                    0,
                    0,
                    0,
                    0,
                    0,
                    0,
                    0,
                    0,
                    0,
                    0,
                    0,
                    0,
                    0,
                    0,
                    0,
                    0,
                    0,
                    0,
                    0,
                    0,
                    0,
                    0,
                    0,
                    0,
                    0,
                    0,
                    0,
                    0,
                    0,
                    0,
                    0,
                    0,
                    0,
                    0,
                    0,
                    0,
                    0,
                    0,
                    0,
                    0,
                    0,
                    0,
                    0,
                    0,
                    0,
                    0,
                    0,
                    0,
                    0,
                    0,
                    0,
                    0,
                    0,
                    0,
                    0,
                    0,
                    0,
                    0,
                    0,
                    0,
                    0,
                    0,
                    0,
                    0,
                    0,
                    0,
                    0,
                    0,
                    0,
                    0,
                    0,
                    0,
                    0,
                    0,
                    0
                ]
            }
        }
    ],
    "LDL_ranking": 1.0,
    "UDL_ranking": 1.0,
    "LDL_category": "Very Low Detection (High Sensitivity)",
    "UDL_category": "Moderate UDL Range"
}