{
    "DOI": "10.1149/1945-7111/abc0ac",
    "sensor_type": "gas",
    "detect_target": [
        {
            "substance_name": "hydrogen",
            "substance_type": "small molecule",
            "substance_descriptors": {
                "CID": 783,
                "MolecularFormula": "H2",
                "MolecularWeight": "2.016",
                "CanonicalSMILES": "[HH]",
                "IsomericSMILES": "[HH]",
                "InChI": "InChI=1S/H2/h1H",
                "InChIKey": "UFHFLCQGNIYNRP-UHFFFAOYSA-N",
                "IUPACName": "molecular hydrogen",
                "XLogP": 0,
                "ExactMass": "2.0156500638",
                "MonoisotopicMass": "2.0156500638",
                "TPSA": 0,
                "Complexity": 0,
                "Charge": 0,
                "HBondDonorCount": 0,
                "HBondAcceptorCount": 0,
                "RotatableBondCount": 0,
                "HeavyAtomCount": 0,
                "IsotopeAtomCount": 0,
                "AtomStereoCount": 0,
                "DefinedAtomStereoCount": 0,
                "UndefinedAtomStereoCount": 0,
                "BondStereoCount": 0,
                "DefinedBondStereoCount": 0,
                "UndefinedBondStereoCount": 0,
                "CovalentUnitCount": 1,
                "ConformerCount3D": 0,
                "Morgan_128": [
                    0,
                    0,
                    0,
                    0,
                    0,
                    0,
                    0,
                    1,
                    0,
                    0,
                    0,
                    0,
                    0,
                    0,
                    0,
                    0,
                    0,
                    0,
                    0,
                    0,
                    0,
                    0,
                    0,
                    0,
                    0,
                    0,
                    0,
                    0,
                    0,
                    0,
                    0,
                    0,
                    0,
                    0,
                    0,
                    0,
                    0,
                    0,
                    0,
                    0,
                    0,
                    0,
                    0,
                    0,
                    0,
                    0,
                    0,
                    0,
                    0,
                    0,
                    0,
                    0,
                    0,
                    0,
                    0,
                    0,
                    0,
                    0,
                    0,
                    0,
                    0,
                    0,
                    0,
                    0,
                    0,
                    0,
                    0,
                    0,
                    0,
                    0,
                    0,
                    0,
                    0,
                    0,
                    0,
                    0,
                    0,
                    0,
                    0,
                    0,
                    0,
                    0,
                    0,
                    0,
                    0,
                    0,
                    0,
                    0,
                    0,
                    0,
                    0,
                    0,
                    0,
                    0,
                    0,
                    0,
                    0,
                    0,
                    0,
                    0,
                    0,
                    0,
                    0,
                    0,
                    0,
                    0,
                    0,
                    0,
                    0,
                    0,
                    0,
                    0,
                    0,
                    0,
                    0,
                    0,
                    0,
                    0,
                    0,
                    0,
                    0,
                    0,
                    0,
                    0,
                    0,
                    0,
                    0,
                    0
                ]
            }
        }
    ],
    "lower_detection_limit_log_ppm": 1.301029996,
    "upper_detection_limit_log_ppm": 3.698970004,
    "probe_material": [
        {
            "substance_name": "palladium oxide",
            "substance_type": "inorganic solid",
            "substance_descriptors": {
                "Number of Elements": 2,
                "Element Types": [
                    "O",
                    "Pd"
                ],
                "Number of Atoms in Unit Cell": 4,
                "Lattice Parameter a (\u00c5)": "3.02",
                "Lattice Parameter b (\u00c5)": "3.02",
                "Lattice Parameter c (\u00c5)": "5.31",
                "Lattice Angle alpha (degrees)": "90",
                "Lattice Angle beta (degrees)": "90",
                "Lattice Angle gamma (degrees)": "90",
                "Unit Cell Volume (\u00c5\u00b3)": 50.08427352138736,
                "Density (g/cm\u00b3)": 8.117605863761803,
                "Space Group Number": 131,
                "Is Metallic (1/0)": 1,
                "Band Gap (eV)": 0.0,
                "Formation Energy per Atom (eV)": -0.6154937300000007,
                "Energy Above Hull (eV/atom)": 0.0,
                "Energy per Atom (eV/atom)": -15.0760457975,
                "Total Magnetization (\u03bcB)": 8e-07,
                "Magnetic Ordering": "NM",
                "Bulk Modulus (GPa)": 155.722,
                "Shear Modulus (GPa)": 34.529,
                "Fermi Energy (eV)": 3.77256715,
                "Total Energy (eV)": -3.30362,
                "Crystal System": "tetragonal",
                "Magpie Descriptors": {
                    "MagpieData minimum Number": 8.0,
                    "MagpieData maximum Number": 46.0,
                    "MagpieData range Number": 38.0,
                    "MagpieData mean Number": 27.0,
                    "MagpieData avg_dev Number": 19.0,
                    "MagpieData mode Number": 8.0,
                    "MagpieData std_dev Number": 26.870057685088806,
                    "MagpieData minimum MendeleevNumber": 62.0,
                    "MagpieData maximum MendeleevNumber": 87.0,
                    "MagpieData range MendeleevNumber": 25.0,
                    "MagpieData mean MendeleevNumber": 74.5,
                    "MagpieData avg_dev MendeleevNumber": 12.5,
                    "MagpieData mode MendeleevNumber": 62.0,
                    "MagpieData std_dev MendeleevNumber": 17.67766952966369,
                    "MagpieData minimum AtomicWeight": 15.9994,
                    "MagpieData maximum AtomicWeight": 106.42,
                    "MagpieData range AtomicWeight": 90.42060000000001,
                    "MagpieData mean AtomicWeight": 61.2097,
                    "MagpieData avg_dev AtomicWeight": 45.210300000000004,
                    "MagpieData mode AtomicWeight": 15.9994,
                    "MagpieData std_dev AtomicWeight": 63.93701941895634,
                    "MagpieData minimum MeltingT": 54.8,
                    "MagpieData maximum MeltingT": 1828.05,
                    "MagpieData range MeltingT": 1773.25,
                    "MagpieData mean MeltingT": 941.425,
                    "MagpieData avg_dev MeltingT": 886.625,
                    "MagpieData mode MeltingT": 54.8,
                    "MagpieData std_dev MeltingT": 1253.8770997390454,
                    "MagpieData minimum Column": 10.0,
                    "MagpieData maximum Column": 16.0,
                    "MagpieData range Column": 6.0,
                    "MagpieData mean Column": 13.0,
                    "MagpieData avg_dev Column": 3.0,
                    "MagpieData mode Column": 10.0,
                    "MagpieData std_dev Column": 4.242640687119285,
                    "MagpieData minimum Row": 2.0,
                    "MagpieData maximum Row": 5.0,
                    "MagpieData range Row": 3.0,
                    "MagpieData mean Row": 3.5,
                    "MagpieData avg_dev Row": 1.5,
                    "MagpieData mode Row": 2.0,
                    "MagpieData std_dev Row": 2.1213203435596424,
                    "MagpieData minimum CovalentRadius": 66.0,
                    "MagpieData maximum CovalentRadius": 139.0,
                    "MagpieData range CovalentRadius": 73.0,
                    "MagpieData mean CovalentRadius": 102.5,
                    "MagpieData avg_dev CovalentRadius": 36.5,
                    "MagpieData mode CovalentRadius": 66.0,
                    "MagpieData std_dev CovalentRadius": 51.61879502661797,
                    "MagpieData minimum Electronegativity": 2.2,
                    "MagpieData maximum Electronegativity": 3.44,
                    "MagpieData range Electronegativity": 1.2399999999999998,
                    "MagpieData mean Electronegativity": 2.8200000000000003,
                    "MagpieData avg_dev Electronegativity": 0.6199999999999999,
                    "MagpieData mode Electronegativity": 2.2,
                    "MagpieData std_dev Electronegativity": 0.8768124086713187,
                    "MagpieData minimum NsValence": 0.0,
                    "MagpieData maximum NsValence": 2.0,
                    "MagpieData range NsValence": 2.0,
                    "MagpieData mean NsValence": 1.0,
                    "MagpieData avg_dev NsValence": 1.0,
                    "MagpieData mode NsValence": 0.0,
                    "MagpieData std_dev NsValence": 1.4142135623730951,
                    "MagpieData minimum NpValence": 0.0,
                    "MagpieData maximum NpValence": 4.0,
                    "MagpieData range NpValence": 4.0,
                    "MagpieData mean NpValence": 2.0,
                    "MagpieData avg_dev NpValence": 2.0,
                    "MagpieData mode NpValence": 0.0,
                    "MagpieData std_dev NpValence": 2.8284271247461903,
                    "MagpieData minimum NdValence": 0.0,
                    "MagpieData maximum NdValence": 10.0,
                    "MagpieData range NdValence": 10.0,
                    "MagpieData mean NdValence": 5.0,
                    "MagpieData avg_dev NdValence": 5.0,
                    "MagpieData mode NdValence": 0.0,
                    "MagpieData std_dev NdValence": 7.0710678118654755,
                    "MagpieData minimum NfValence": 0.0,
                    "MagpieData maximum NfValence": 0.0,
                    "MagpieData range NfValence": 0.0,
                    "MagpieData mean NfValence": 0.0,
                    "MagpieData avg_dev NfValence": 0.0,
                    "MagpieData mode NfValence": 0.0,
                    "MagpieData std_dev NfValence": 0.0,
                    "MagpieData minimum NValence": 6.0,
                    "MagpieData maximum NValence": 10.0,
                    "MagpieData range NValence": 4.0,
                    "MagpieData mean NValence": 8.0,
                    "MagpieData avg_dev NValence": 2.0,
                    "MagpieData mode NValence": 6.0,
                    "MagpieData std_dev NValence": 2.8284271247461903,
                    "MagpieData minimum NsUnfilled": 0.0,
                    "MagpieData maximum NsUnfilled": 0.0,
                    "MagpieData range NsUnfilled": 0.0,
                    "MagpieData mean NsUnfilled": 0.0,
                    "MagpieData avg_dev NsUnfilled": 0.0,
                    "MagpieData mode NsUnfilled": 0.0,
                    "MagpieData std_dev NsUnfilled": 0.0,
                    "MagpieData minimum NpUnfilled": 0.0,
                    "MagpieData maximum NpUnfilled": 2.0,
                    "MagpieData range NpUnfilled": 2.0,
                    "MagpieData mean NpUnfilled": 1.0,
                    "MagpieData avg_dev NpUnfilled": 1.0,
                    "MagpieData mode NpUnfilled": 0.0,
                    "MagpieData std_dev NpUnfilled": 1.4142135623730951,
                    "MagpieData minimum NdUnfilled": 0.0,
                    "MagpieData maximum NdUnfilled": 0.0,
                    "MagpieData range NdUnfilled": 0.0,
                    "MagpieData mean NdUnfilled": 0.0,
                    "MagpieData avg_dev NdUnfilled": 0.0,
                    "MagpieData mode NdUnfilled": 0.0,
                    "MagpieData std_dev NdUnfilled": 0.0,
                    "MagpieData minimum NfUnfilled": 0.0,
                    "MagpieData maximum NfUnfilled": 0.0,
                    "MagpieData range NfUnfilled": 0.0,
                    "MagpieData mean NfUnfilled": 0.0,
                    "MagpieData avg_dev NfUnfilled": 0.0,
                    "MagpieData mode NfUnfilled": 0.0,
                    "MagpieData std_dev NfUnfilled": 0.0,
                    "MagpieData minimum NUnfilled": 0.0,
                    "MagpieData maximum NUnfilled": 2.0,
                    "MagpieData range NUnfilled": 2.0,
                    "MagpieData mean NUnfilled": 1.0,
                    "MagpieData avg_dev NUnfilled": 1.0,
                    "MagpieData mode NUnfilled": 0.0,
                    "MagpieData std_dev NUnfilled": 1.4142135623730951,
                    "MagpieData minimum GSvolume_pa": 9.105,
                    "MagpieData maximum GSvolume_pa": 14.41,
                    "MagpieData range GSvolume_pa": 5.305,
                    "MagpieData mean GSvolume_pa": 11.7575,
                    "MagpieData avg_dev GSvolume_pa": 2.6525,
                    "MagpieData mode GSvolume_pa": 9.105,
                    "MagpieData std_dev GSvolume_pa": 3.7512014741946347,
                    "MagpieData minimum GSbandgap": 0.0,
                    "MagpieData maximum GSbandgap": 0.0,
                    "MagpieData range GSbandgap": 0.0,
                    "MagpieData mean GSbandgap": 0.0,
                    "MagpieData avg_dev GSbandgap": 0.0,
                    "MagpieData mode GSbandgap": 0.0,
                    "MagpieData std_dev GSbandgap": 0.0,
                    "MagpieData minimum GSmagmom": 0.0,
                    "MagpieData maximum GSmagmom": 0.0,
                    "MagpieData range GSmagmom": 0.0,
                    "MagpieData mean GSmagmom": 0.0,
                    "MagpieData avg_dev GSmagmom": 0.0,
                    "MagpieData mode GSmagmom": 0.0,
                    "MagpieData std_dev GSmagmom": 0.0,
                    "MagpieData minimum SpaceGroupNumber": 12.0,
                    "MagpieData maximum SpaceGroupNumber": 225.0,
                    "MagpieData range SpaceGroupNumber": 213.0,
                    "MagpieData mean SpaceGroupNumber": 118.5,
                    "MagpieData avg_dev SpaceGroupNumber": 106.5,
                    "MagpieData mode SpaceGroupNumber": 12.0,
                    "MagpieData std_dev SpaceGroupNumber": 150.61374439273462
                }
            }
        }
    ],
    "test_operating_temperature_celsius": 27.5,
    "min_pH_when_testing": -1.0,
    "max_pH_when_testing": -1.0,
    "test_medium_electrolyte": [
        {
            "substance_name": "oxygen",
            "substance_type": "small molecule",
            "substance_descriptors": {
                "CID": 977,
                "MolecularFormula": "O2",
                "MolecularWeight": "31.999",
                "CanonicalSMILES": "O=O",
                "IsomericSMILES": "O=O",
                "InChI": "InChI=1S/O2/c1-2",
                "InChIKey": "MYMOFIZGZYHOMD-UHFFFAOYSA-N",
                "IUPACName": "molecular oxygen",
                "XLogP": -1.1,
                "ExactMass": "31.989829239",
                "MonoisotopicMass": "31.989829239",
                "TPSA": 34.1,
                "Complexity": 0,
                "Charge": 0,
                "HBondDonorCount": 0,
                "HBondAcceptorCount": 2,
                "RotatableBondCount": 0,
                "HeavyAtomCount": 2,
                "IsotopeAtomCount": 0,
                "AtomStereoCount": 0,
                "DefinedAtomStereoCount": 0,
                "UndefinedAtomStereoCount": 0,
                "BondStereoCount": 0,
                "DefinedBondStereoCount": 0,
                "UndefinedBondStereoCount": 0,
                "CovalentUnitCount": 1,
                "Volume3D": 22.9,
                "XStericQuadrupole3D": 0.87,
                "YStericQuadrupole3D": 0.49,
                "ZStericQuadrupole3D": 0.49,
                "FeatureAcceptorCount3D": 0,
                "FeatureDonorCount3D": 0,
                "FeatureAnionCount3D": 0,
                "FeatureCationCount3D": 0,
                "FeatureRingCount3D": 0,
                "FeatureHydrophobeCount3D": 0,
                "ConformerModelRMSD3D": 0.4,
                "EffectiveRotorCount3D": 0,
                "ConformerCount3D": 1,
                "Morgan_128": [
                    0,
                    0,
                    0,
                    0,
                    0,
                    0,
                    0,
                    0,
                    0,
                    0,
                    1,
                    0,
                    0,
                    0,
                    0,
                    0,
                    1,
                    0,
                    0,
                    0,
                    0,
                    0,
                    0,
                    0,
                    0,
                    0,
                    0,
                    0,
                    0,
                    0,
                    0,
                    0,
                    0,
                    0,
                    0,
                    0,
                    0,
                    0,
                    0,
                    0,
                    0,
                    0,
                    0,
                    0,
                    0,
                    0,
                    0,
                    0,
                    0,
                    0,
                    0,
                    0,
                    0,
                    0,
                    0,
                    0,
                    0,
                    0,
                    0,
                    0,
                    0,
                    0,
                    0,
                    0,
                    0,
                    0,
                    0,
                    0,
                    0,
                    0,
                    0,
                    0,
                    0,
                    0,
                    0,
                    0,
                    0,
                    0,
                    0,
                    0,
                    0,
                    0,
                    0,
                    0,
                    0,
                    0,
                    0,
                    0,
                    0,
                    0,
                    0,
                    0,
                    0,
                    0,
                    0,
                    0,
                    0,
                    0,
                    0,
                    0,
                    0,
                    0,
                    0,
                    0,
                    0,
                    0,
                    0,
                    0,
                    0,
                    0,
                    0,
                    0,
                    0,
                    0,
                    0,
                    0,
                    0,
                    0,
                    0,
                    0,
                    0,
                    0,
                    0,
                    0,
                    0,
                    0,
                    0,
                    0
                ]
            }
        },
        {
            "substance_name": "nitrogen",
            "substance_type": "small molecule",
            "substance_descriptors": {
                "CID": 947,
                "MolecularFormula": "N2",
                "MolecularWeight": "28.014",
                "CanonicalSMILES": "N#N",
                "IsomericSMILES": "N#N",
                "InChI": "InChI=1S/N2/c1-2",
                "InChIKey": "IJGRMHOSHXDMSA-UHFFFAOYSA-N",
                "IUPACName": "molecular nitrogen",
                "XLogP": 0.1,
                "ExactMass": "28.006148008",
                "MonoisotopicMass": "28.006148008",
                "TPSA": 47.6,
                "Complexity": 8,
                "Charge": 0,
                "HBondDonorCount": 0,
                "HBondAcceptorCount": 2,
                "RotatableBondCount": 0,
                "HeavyAtomCount": 2,
                "IsotopeAtomCount": 0,
                "AtomStereoCount": 0,
                "DefinedAtomStereoCount": 0,
                "UndefinedAtomStereoCount": 0,
                "BondStereoCount": 0,
                "DefinedBondStereoCount": 0,
                "UndefinedBondStereoCount": 0,
                "CovalentUnitCount": 1,
                "Volume3D": 23.1,
                "XStericQuadrupole3D": 0.82,
                "YStericQuadrupole3D": 0.51,
                "ZStericQuadrupole3D": 0.51,
                "FeatureAcceptorCount3D": 0,
                "FeatureDonorCount3D": 0,
                "FeatureAnionCount3D": 0,
                "FeatureCationCount3D": 0,
                "FeatureRingCount3D": 0,
                "FeatureHydrophobeCount3D": 0,
                "ConformerModelRMSD3D": 0.4,
                "EffectiveRotorCount3D": 0,
                "ConformerCount3D": 1,
                "Morgan_128": [
                    0,
                    0,
                    0,
                    0,
                    0,
                    0,
                    0,
                    0,
                    0,
                    0,
                    0,
                    0,
                    0,
                    0,
                    0,
                    0,
                    0,
                    0,
                    0,
                    0,
                    0,
                    0,
                    0,
                    0,
                    0,
                    0,
                    0,
                    0,
                    0,
                    0,
                    0,
                    0,
                    0,
                    0,
                    0,
                    0,
                    0,
                    0,
                    0,
                    0,
                    0,
                    0,
                    0,
                    0,
                    0,
                    0,
                    0,
                    0,
                    0,
                    0,
                    0,
                    0,
                    0,
                    0,
                    0,
                    0,
                    0,
                    0,
                    0,
                    0,
                    0,
                    0,
                    0,
                    0,
                    0,
                    0,
                    0,
                    0,
                    0,
                    0,
                    0,
                    0,
                    0,
                    0,
                    0,
                    0,
                    1,
                    0,
                    0,
                    0,
                    0,
                    0,
                    0,
                    0,
                    0,
                    0,
                    0,
                    0,
                    0,
                    0,
                    0,
                    0,
                    0,
                    0,
                    0,
                    0,
                    0,
                    0,
                    0,
                    0,
                    0,
                    0,
                    0,
                    0,
                    1,
                    0,
                    0,
                    0,
                    0,
                    0,
                    0,
                    0,
                    0,
                    0,
                    0,
                    0,
                    0,
                    0,
                    0,
                    0,
                    0,
                    0,
                    0,
                    0,
                    0,
                    0,
                    0,
                    0
                ]
            }
        }
    ],
    "LDL_ranking": 1.0,
    "UDL_ranking": 1.0,
    "LDL_category": "Very High Detection (Low Sensitivity)",
    "UDL_category": "High UDL Range"
}