{
    "DOI": "10.1088/1361-6463/ad06ec",
    "sensor_type": "liquid",
    "detect_target": [
        {
            "substance_name": "copper(ii) phthalocyanine-tetrasulfonic acid tetrasodium salt",
            "substance_type": "small molecule",
            "substance_descriptors": {
                "CID": 12086660,
                "MolecularFormula": "C32H12CuN8Na4O12S4",
                "MolecularWeight": "984.3",
                "CanonicalSMILES": "C1=CC2=C(C=C1S(=O)(=O)[O-])C3=NC4=NC(=NC5=C6C=CC(=CC6=C([N-]5)N=C7C8=C(C=C(C=C8)S(=O)(=O)[O-])C(=N7)N=C2[N-]3)S(=O)(=O)[O-])C9=C4C=CC(=C9)S(=O)(=O)[O-].[Na+].[Na+].[Na+].[Na+].[Cu+2]",
                "IsomericSMILES": "C1=CC2=C(C=C1S(=O)(=O)[O-])C3=NC4=NC(=NC5=C6C=CC(=CC6=C([N-]5)N=C7C8=C(C=C(C=C8)S(=O)(=O)[O-])C(=N7)N=C2[N-]3)S(=O)(=O)[O-])C9=C4C=CC(=C9)S(=O)(=O)[O-].[Na+].[Na+].[Na+].[Na+].[Cu+2]",
                "InChI": "InChI=1S/C32H16N8O12S4.Cu.4Na/c41-53(42,43)13-1-5-17-21(9-13)29-33-25(17)37-30-22-10-14(54(44,45)46)2-6-18(22)27(34-30)39-32-24-12-16(56(50,51)52)4-8-20(24)28(36-32)40-31-23-11-15(55(47,48)49)3-7-19(23)26(35-31)38-29;;;;;/h1-12H,(H4-2,33,34,35,36,37,38,39,40,41,42,43,44,45,46,47,48,49,50,51,52);;;;;/q-2;+2;4*+1/p-4",
                "InChIKey": "HMPXSWYLSSRSQF-UHFFFAOYSA-J",
                "IUPACName": "copper;tetrasodium;2,11,20,29,37,39-hexaza-38,40-diazanidanonacyclo[28.6.1.13,10.112,19.121,28.04,9.013,18.022,27.031,36]tetraconta-1,3,5,7,9,11,13(18),14,16,19(39),20,22(27),23,25,28,30(37),31(36),32,34-nonadecaene-6,15,24,33-tetrasulfonate",
                "ExactMass": "982.834427",
                "MonoisotopicMass": "982.834427",
                "TPSA": 339,
                "Complexity": 2140,
                "Charge": 0,
                "HBondDonorCount": 0,
                "HBondAcceptorCount": 16,
                "RotatableBondCount": 0,
                "HeavyAtomCount": 61,
                "IsotopeAtomCount": 0,
                "AtomStereoCount": 0,
                "DefinedAtomStereoCount": 0,
                "UndefinedAtomStereoCount": 0,
                "BondStereoCount": 0,
                "DefinedBondStereoCount": 0,
                "UndefinedBondStereoCount": 0,
                "CovalentUnitCount": 6,
                "ConformerCount3D": 0,
                "Morgan_128": [
                    1,
                    0,
                    0,
                    0,
                    0,
                    0,
                    0,
                    0,
                    1,
                    1,
                    1,
                    0,
                    1,
                    0,
                    0,
                    0,
                    0,
                    0,
                    0,
                    0,
                    0,
                    1,
                    0,
                    0,
                    0,
                    0,
                    0,
                    0,
                    0,
                    1,
                    0,
                    0,
                    0,
                    0,
                    0,
                    0,
                    0,
                    1,
                    0,
                    0,
                    1,
                    0,
                    0,
                    0,
                    0,
                    1,
                    0,
                    0,
                    0,
                    0,
                    1,
                    0,
                    1,
                    0,
                    0,
                    0,
                    0,
                    0,
                    0,
                    1,
                    0,
                    1,
                    0,
                    1,
                    0,
                    0,
                    1,
                    0,
                    1,
                    1,
                    0,
                    0,
                    0,
                    0,
                    0,
                    1,
                    0,
                    1,
                    0,
                    0,
                    0,
                    1,
                    0,
                    0,
                    0,
                    0,
                    1,
                    0,
                    0,
                    0,
                    0,
                    0,
                    0,
                    0,
                    1,
                    0,
                    1,
                    0,
                    0,
                    1,
                    1,
                    1,
                    0,
                    0,
                    0,
                    1,
                    0,
                    1,
                    0,
                    0,
                    0,
                    0,
                    0,
                    0,
                    0,
                    0,
                    0,
                    0,
                    0,
                    0,
                    0,
                    0,
                    1,
                    0,
                    0,
                    0,
                    0,
                    1
                ]
            }
        }
    ],
    "lower_detection_limit_log_ppm": -1.229370345,
    "upper_detection_limit_log_ppm": 2.992478404,
    "probe_material": [
        {
            "substance_name": "zinc oxide",
            "substance_type": "inorganic solid",
            "substance_descriptors": {
                "Number of Elements": 2,
                "Element Types": [
                    "O",
                    "Zn"
                ],
                "Number of Atoms in Unit Cell": 4,
                "Lattice Parameter a (\u00c5)": "3.22",
                "Lattice Parameter b (\u00c5)": "3.22",
                "Lattice Parameter c (\u00c5)": "5.2",
                "Lattice Angle alpha (degrees)": "90",
                "Lattice Angle beta (degrees)": "90",
                "Lattice Angle gamma (degrees)": "120",
                "Unit Cell Volume (\u00c5\u00b3)": 47.397148259900405,
                "Density (g/cm\u00b3)": 5.70421780686615,
                "Space Group Number": 186,
                "Band Gap (eV)": 0.7227,
                "Is Metallic (1/0)": 0,
                "Formation Energy per Atom (eV)": -1.647445170000001,
                "Energy Above Hull (eV/atom)": 0.0,
                "Energy per Atom (eV/atom)": -9.083071735,
                "Total Magnetization (\u03bcB)": 0.0,
                "Magnetic Ordering": "NM",
                "Bulk Modulus (GPa)": 128.167,
                "Shear Modulus (GPa)": 42.921,
                "Fermi Energy (eV)": 0.8923141,
                "Total Energy (eV)": -2.14542,
                "Crystal System": "hexagonal",
                "Magpie Descriptors": {
                    "MagpieData minimum Number": 8.0,
                    "MagpieData maximum Number": 30.0,
                    "MagpieData range Number": 22.0,
                    "MagpieData mean Number": 19.0,
                    "MagpieData avg_dev Number": 11.0,
                    "MagpieData mode Number": 8.0,
                    "MagpieData std_dev Number": 15.556349186104045,
                    "MagpieData minimum MendeleevNumber": 69.0,
                    "MagpieData maximum MendeleevNumber": 87.0,
                    "MagpieData range MendeleevNumber": 18.0,
                    "MagpieData mean MendeleevNumber": 78.0,
                    "MagpieData avg_dev MendeleevNumber": 9.0,
                    "MagpieData mode MendeleevNumber": 69.0,
                    "MagpieData std_dev MendeleevNumber": 12.727922061357855,
                    "MagpieData minimum AtomicWeight": 15.9994,
                    "MagpieData maximum AtomicWeight": 65.38,
                    "MagpieData range AtomicWeight": 49.380599999999994,
                    "MagpieData mean AtomicWeight": 40.689699999999995,
                    "MagpieData avg_dev AtomicWeight": 24.690299999999997,
                    "MagpieData mode AtomicWeight": 15.9994,
                    "MagpieData std_dev AtomicWeight": 34.917357119060426,
                    "MagpieData minimum MeltingT": 54.8,
                    "MagpieData maximum MeltingT": 692.68,
                    "MagpieData range MeltingT": 637.88,
                    "MagpieData mean MeltingT": 373.73999999999995,
                    "MagpieData avg_dev MeltingT": 318.93999999999994,
                    "MagpieData mode MeltingT": 54.8,
                    "MagpieData std_dev MeltingT": 451.0492735832749,
                    "MagpieData minimum Column": 12.0,
                    "MagpieData maximum Column": 16.0,
                    "MagpieData range Column": 4.0,
                    "MagpieData mean Column": 14.0,
                    "MagpieData avg_dev Column": 2.0,
                    "MagpieData mode Column": 12.0,
                    "MagpieData std_dev Column": 2.8284271247461903,
                    "MagpieData minimum Row": 2.0,
                    "MagpieData maximum Row": 4.0,
                    "MagpieData range Row": 2.0,
                    "MagpieData mean Row": 3.0,
                    "MagpieData avg_dev Row": 1.0,
                    "MagpieData mode Row": 2.0,
                    "MagpieData std_dev Row": 1.4142135623730951,
                    "MagpieData minimum CovalentRadius": 66.0,
                    "MagpieData maximum CovalentRadius": 122.0,
                    "MagpieData range CovalentRadius": 56.0,
                    "MagpieData mean CovalentRadius": 94.0,
                    "MagpieData avg_dev CovalentRadius": 28.0,
                    "MagpieData mode CovalentRadius": 66.0,
                    "MagpieData std_dev CovalentRadius": 39.59797974644666,
                    "MagpieData minimum Electronegativity": 1.65,
                    "MagpieData maximum Electronegativity": 3.44,
                    "MagpieData range Electronegativity": 1.79,
                    "MagpieData mean Electronegativity": 2.545,
                    "MagpieData avg_dev Electronegativity": 0.895,
                    "MagpieData mode Electronegativity": 1.65,
                    "MagpieData std_dev Electronegativity": 1.26572113832392,
                    "MagpieData minimum NsValence": 2.0,
                    "MagpieData maximum NsValence": 2.0,
                    "MagpieData range NsValence": 0.0,
                    "MagpieData mean NsValence": 2.0,
                    "MagpieData avg_dev NsValence": 0.0,
                    "MagpieData mode NsValence": 2.0,
                    "MagpieData std_dev NsValence": 0.0,
                    "MagpieData minimum NpValence": 0.0,
                    "MagpieData maximum NpValence": 4.0,
                    "MagpieData range NpValence": 4.0,
                    "MagpieData mean NpValence": 2.0,
                    "MagpieData avg_dev NpValence": 2.0,
                    "MagpieData mode NpValence": 0.0,
                    "MagpieData std_dev NpValence": 2.8284271247461903,
                    "MagpieData minimum NdValence": 0.0,
                    "MagpieData maximum NdValence": 10.0,
                    "MagpieData range NdValence": 10.0,
                    "MagpieData mean NdValence": 5.0,
                    "MagpieData avg_dev NdValence": 5.0,
                    "MagpieData mode NdValence": 0.0,
                    "MagpieData std_dev NdValence": 7.0710678118654755,
                    "MagpieData minimum NfValence": 0.0,
                    "MagpieData maximum NfValence": 0.0,
                    "MagpieData range NfValence": 0.0,
                    "MagpieData mean NfValence": 0.0,
                    "MagpieData avg_dev NfValence": 0.0,
                    "MagpieData mode NfValence": 0.0,
                    "MagpieData std_dev NfValence": 0.0,
                    "MagpieData minimum NValence": 6.0,
                    "MagpieData maximum NValence": 12.0,
                    "MagpieData range NValence": 6.0,
                    "MagpieData mean NValence": 9.0,
                    "MagpieData avg_dev NValence": 3.0,
                    "MagpieData mode NValence": 6.0,
                    "MagpieData std_dev NValence": 4.242640687119285,
                    "MagpieData minimum NsUnfilled": 0.0,
                    "MagpieData maximum NsUnfilled": 0.0,
                    "MagpieData range NsUnfilled": 0.0,
                    "MagpieData mean NsUnfilled": 0.0,
                    "MagpieData avg_dev NsUnfilled": 0.0,
                    "MagpieData mode NsUnfilled": 0.0,
                    "MagpieData std_dev NsUnfilled": 0.0,
                    "MagpieData minimum NpUnfilled": 0.0,
                    "MagpieData maximum NpUnfilled": 2.0,
                    "MagpieData range NpUnfilled": 2.0,
                    "MagpieData mean NpUnfilled": 1.0,
                    "MagpieData avg_dev NpUnfilled": 1.0,
                    "MagpieData mode NpUnfilled": 0.0,
                    "MagpieData std_dev NpUnfilled": 1.4142135623730951,
                    "MagpieData minimum NdUnfilled": 0.0,
                    "MagpieData maximum NdUnfilled": 0.0,
                    "MagpieData range NdUnfilled": 0.0,
                    "MagpieData mean NdUnfilled": 0.0,
                    "MagpieData avg_dev NdUnfilled": 0.0,
                    "MagpieData mode NdUnfilled": 0.0,
                    "MagpieData std_dev NdUnfilled": 0.0,
                    "MagpieData minimum NfUnfilled": 0.0,
                    "MagpieData maximum NfUnfilled": 0.0,
                    "MagpieData range NfUnfilled": 0.0,
                    "MagpieData mean NfUnfilled": 0.0,
                    "MagpieData avg_dev NfUnfilled": 0.0,
                    "MagpieData mode NfUnfilled": 0.0,
                    "MagpieData std_dev NfUnfilled": 0.0,
                    "MagpieData minimum NUnfilled": 0.0,
                    "MagpieData maximum NUnfilled": 2.0,
                    "MagpieData range NUnfilled": 2.0,
                    "MagpieData mean NUnfilled": 1.0,
                    "MagpieData avg_dev NUnfilled": 1.0,
                    "MagpieData mode NUnfilled": 0.0,
                    "MagpieData std_dev NUnfilled": 1.4142135623730951,
                    "MagpieData minimum GSvolume_pa": 9.105,
                    "MagpieData maximum GSvolume_pa": 13.96,
                    "MagpieData range GSvolume_pa": 4.855,
                    "MagpieData mean GSvolume_pa": 11.5325,
                    "MagpieData avg_dev GSvolume_pa": 2.4275,
                    "MagpieData mode GSvolume_pa": 9.105,
                    "MagpieData std_dev GSvolume_pa": 3.4330034226606885,
                    "MagpieData minimum GSbandgap": 0.0,
                    "MagpieData maximum GSbandgap": 0.0,
                    "MagpieData range GSbandgap": 0.0,
                    "MagpieData mean GSbandgap": 0.0,
                    "MagpieData avg_dev GSbandgap": 0.0,
                    "MagpieData mode GSbandgap": 0.0,
                    "MagpieData std_dev GSbandgap": 0.0,
                    "MagpieData minimum GSmagmom": 0.0,
                    "MagpieData maximum GSmagmom": 0.0,
                    "MagpieData range GSmagmom": 0.0,
                    "MagpieData mean GSmagmom": 0.0,
                    "MagpieData avg_dev GSmagmom": 0.0,
                    "MagpieData mode GSmagmom": 0.0,
                    "MagpieData std_dev GSmagmom": 0.0,
                    "MagpieData minimum SpaceGroupNumber": 12.0,
                    "MagpieData maximum SpaceGroupNumber": 194.0,
                    "MagpieData range SpaceGroupNumber": 182.0,
                    "MagpieData mean SpaceGroupNumber": 103.0,
                    "MagpieData avg_dev SpaceGroupNumber": 91.0,
                    "MagpieData mode SpaceGroupNumber": 12.0,
                    "MagpieData std_dev SpaceGroupNumber": 128.69343417595164
                }
            }
        }
    ],
    "test_operating_temperature_celsius": 26.25,
    "min_pH_when_testing": 6.5,
    "max_pH_when_testing": 6.5,
    "test_medium_electrolyte": [
        {
            "substance_name": "water",
            "substance_type": "small molecule",
            "substance_descriptors": {
                "CID": 962,
                "MolecularFormula": "H2O",
                "MolecularWeight": "18.015",
                "CanonicalSMILES": "O",
                "IsomericSMILES": "O",
                "InChI": "InChI=1S/H2O/h1H2",
                "InChIKey": "XLYOFNOQVPJJNP-UHFFFAOYSA-N",
                "IUPACName": "oxidane",
                "XLogP": -0.5,
                "ExactMass": "18.010564683",
                "MonoisotopicMass": "18.010564683",
                "TPSA": 1,
                "Complexity": 0,
                "Charge": 0,
                "HBondDonorCount": 1,
                "HBondAcceptorCount": 1,
                "RotatableBondCount": 0,
                "HeavyAtomCount": 1,
                "IsotopeAtomCount": 0,
                "AtomStereoCount": 0,
                "DefinedAtomStereoCount": 0,
                "UndefinedAtomStereoCount": 0,
                "BondStereoCount": 0,
                "DefinedBondStereoCount": 0,
                "UndefinedBondStereoCount": 0,
                "CovalentUnitCount": 1,
                "Volume3D": 14.7,
                "XStericQuadrupole3D": 0.49,
                "YStericQuadrupole3D": 0.49,
                "ZStericQuadrupole3D": 0.49,
                "FeatureAcceptorCount3D": 1,
                "FeatureDonorCount3D": 1,
                "FeatureAnionCount3D": 0,
                "FeatureCationCount3D": 0,
                "FeatureRingCount3D": 0,
                "FeatureHydrophobeCount3D": 0,
                "ConformerModelRMSD3D": 0.4,
                "EffectiveRotorCount3D": 0,
                "ConformerCount3D": 1,
                "Morgan_128": [
                    0,
                    0,
                    0,
                    0,
                    0,
                    0,
                    0,
                    0,
                    0,
                    0,
                    0,
                    0,
                    0,
                    0,
                    0,
                    0,
                    0,
                    0,
                    0,
                    0,
                    0,
                    0,
                    1,
                    0,
                    0,
                    0,
                    0,
                    0,
                    0,
                    0,
                    0,
                    0,
                    0,
                    0,
                    0,
                    0,
                    0,
                    0,
                    0,
                    0,
                    0,
                    0,
                    0,
                    0,
                    0,
                    0,
                    0,
                    0,
                    0,
                    0,
                    0,
                    0,
                    0,
                    0,
                    0,
                    0,
                    0,
                    0,
                    0,
                    0,
                    0,
                    0,
                    0,
                    0,
                    0,
                    0,
                    0,
                    0,
                    0,
                    0,
                    0,
                    0,
                    0,
                    0,
                    0,
                    0,
                    0,
                    0,
                    0,
                    0,
                    0,
                    0,
                    0,
                    0,
                    0,
                    0,
                    0,
                    0,
                    0,
                    0,
                    0,
                    0,
                    0,
                    0,
                    0,
                    0,
                    0,
                    0,
                    0,
                    0,
                    0,
                    0,
                    0,
                    0,
                    0,
                    0,
                    0,
                    0,
                    0,
                    0,
                    0,
                    0,
                    0,
                    0,
                    0,
                    0,
                    0,
                    0,
                    0,
                    0,
                    0,
                    0,
                    0,
                    0,
                    0,
                    0,
                    0,
                    0
                ]
            }
        }
    ],
    "LDL_ranking": 1.0,
    "UDL_ranking": 1.0,
    "LDL_category": "Moderate Detection",
    "UDL_category": "Moderate UDL Range"
}