{
    "DOI": "10.1016/j.jhazmat.2021.126301",
    "sensor_type": "liquid",
    "detect_target": [
        {
            "substance_name": "hg2+",
            "substance_type": "small molecule",
            "substance_descriptors": {
                "CID": 26623,
                "MolecularFormula": "Hg+2",
                "MolecularWeight": "200.59",
                "CanonicalSMILES": "[Hg+2]",
                "IsomericSMILES": "[Hg+2]",
                "InChI": "InChI=1S/Hg/q+2",
                "InChIKey": "BQPIGGFYSBELGY-UHFFFAOYSA-N",
                "IUPACName": "mercury(2+)",
                "ExactMass": "201.970644",
                "MonoisotopicMass": "201.970644",
                "TPSA": 0,
                "Complexity": 0,
                "Charge": 2,
                "HBondDonorCount": 0,
                "HBondAcceptorCount": 0,
                "RotatableBondCount": 0,
                "HeavyAtomCount": 1,
                "IsotopeAtomCount": 0,
                "AtomStereoCount": 0,
                "DefinedAtomStereoCount": 0,
                "UndefinedAtomStereoCount": 0,
                "BondStereoCount": 0,
                "DefinedBondStereoCount": 0,
                "UndefinedBondStereoCount": 0,
                "CovalentUnitCount": 1,
                "ConformerCount3D": 0,
                "Morgan_128": [
                    0,
                    0,
                    0,
                    0,
                    0,
                    0,
                    0,
                    0,
                    0,
                    0,
                    0,
                    0,
                    0,
                    0,
                    0,
                    0,
                    0,
                    0,
                    0,
                    0,
                    0,
                    0,
                    0,
                    0,
                    0,
                    0,
                    0,
                    0,
                    0,
                    0,
                    0,
                    0,
                    0,
                    0,
                    0,
                    0,
                    0,
                    0,
                    0,
                    0,
                    0,
                    0,
                    0,
                    0,
                    0,
                    0,
                    0,
                    0,
                    0,
                    0,
                    0,
                    0,
                    0,
                    0,
                    0,
                    0,
                    0,
                    0,
                    0,
                    0,
                    0,
                    0,
                    0,
                    0,
                    0,
                    0,
                    0,
                    0,
                    0,
                    0,
                    0,
                    0,
                    0,
                    0,
                    0,
                    0,
                    0,
                    0,
                    0,
                    0,
                    0,
                    0,
                    0,
                    0,
                    0,
                    0,
                    0,
                    0,
                    0,
                    0,
                    0,
                    0,
                    0,
                    0,
                    0,
                    0,
                    0,
                    0,
                    1,
                    0,
                    0,
                    0,
                    0,
                    0,
                    0,
                    0,
                    0,
                    0,
                    0,
                    0,
                    0,
                    0,
                    0,
                    0,
                    0,
                    0,
                    0,
                    0,
                    0,
                    0,
                    0,
                    0,
                    0,
                    0,
                    0,
                    0,
                    0,
                    0
                ]
            }
        }
    ],
    "lower_detection_limit_log_ppm": -2.998720717,
    "upper_detection_limit_log_ppm": 1.302309278,
    "probe_material": [
        {
            "substance_name": "titanium carbide",
            "substance_type": "inorganic solid",
            "substance_descriptors": {
                "Number of Elements": 2,
                "Element Types": [
                    "C",
                    "Ti"
                ],
                "Number of Atoms in Unit Cell": 2,
                "Lattice Parameter a (\u00c5)": "4.35",
                "Lattice Parameter b (\u00c5)": "4.35",
                "Lattice Parameter c (\u00c5)": "4.35",
                "Lattice Angle alpha (degrees)": "90",
                "Lattice Angle beta (degrees)": "90",
                "Lattice Angle gamma (degrees)": "90",
                "Unit Cell Volume (\u00c5\u00b3)": 20.315907256971823,
                "Density (g/cm\u00b3)": 4.894158001928937,
                "Space Group Number": 225,
                "Is Metallic (1/0)": 1,
                "Band Gap (eV)": 0.0,
                "Formation Energy per Atom (eV)": -0.8090616254166676,
                "Energy Above Hull (eV/atom)": 0.0,
                "Energy per Atom (eV/atom)": -9.37114038,
                "Total Magnetization (\u03bcB)": 1e-07,
                "Magnetic Ordering": "NM",
                "Bulk Modulus (GPa)": 251.478,
                "Shear Modulus (GPa)": 172.363,
                "Fermi Energy (eV)": 7.67533018,
                "Total Energy (eV)": -7.48223,
                "Crystal System": "cubic",
                "Magpie Descriptors": {
                    "MagpieData minimum Number": 6.0,
                    "MagpieData maximum Number": 22.0,
                    "MagpieData range Number": 16.0,
                    "MagpieData mean Number": 14.0,
                    "MagpieData avg_dev Number": 8.0,
                    "MagpieData mode Number": 6.0,
                    "MagpieData std_dev Number": 11.313708498984761,
                    "MagpieData minimum MendeleevNumber": 43.0,
                    "MagpieData maximum MendeleevNumber": 77.0,
                    "MagpieData range MendeleevNumber": 34.0,
                    "MagpieData mean MendeleevNumber": 60.0,
                    "MagpieData avg_dev MendeleevNumber": 17.0,
                    "MagpieData mode MendeleevNumber": 43.0,
                    "MagpieData std_dev MendeleevNumber": 24.041630560342615,
                    "MagpieData minimum AtomicWeight": 12.0107,
                    "MagpieData maximum AtomicWeight": 47.867,
                    "MagpieData range AtomicWeight": 35.8563,
                    "MagpieData mean AtomicWeight": 29.93885,
                    "MagpieData avg_dev AtomicWeight": 17.92815,
                    "MagpieData mode AtomicWeight": 12.0107,
                    "MagpieData std_dev AtomicWeight": 25.354232878259204,
                    "MagpieData minimum MeltingT": 1941.0,
                    "MagpieData maximum MeltingT": 3823.0,
                    "MagpieData range MeltingT": 1882.0,
                    "MagpieData mean MeltingT": 2882.0,
                    "MagpieData avg_dev MeltingT": 941.0,
                    "MagpieData mode MeltingT": 1941.0,
                    "MagpieData std_dev MeltingT": 1330.7749621930825,
                    "MagpieData minimum Column": 4.0,
                    "MagpieData maximum Column": 14.0,
                    "MagpieData range Column": 10.0,
                    "MagpieData mean Column": 9.0,
                    "MagpieData avg_dev Column": 5.0,
                    "MagpieData mode Column": 4.0,
                    "MagpieData std_dev Column": 7.0710678118654755,
                    "MagpieData minimum Row": 2.0,
                    "MagpieData maximum Row": 4.0,
                    "MagpieData range Row": 2.0,
                    "MagpieData mean Row": 3.0,
                    "MagpieData avg_dev Row": 1.0,
                    "MagpieData mode Row": 2.0,
                    "MagpieData std_dev Row": 1.4142135623730951,
                    "MagpieData minimum CovalentRadius": 76.0,
                    "MagpieData maximum CovalentRadius": 160.0,
                    "MagpieData range CovalentRadius": 84.0,
                    "MagpieData mean CovalentRadius": 118.0,
                    "MagpieData avg_dev CovalentRadius": 42.0,
                    "MagpieData mode CovalentRadius": 76.0,
                    "MagpieData std_dev CovalentRadius": 59.39696961966999,
                    "MagpieData minimum Electronegativity": 1.54,
                    "MagpieData maximum Electronegativity": 2.55,
                    "MagpieData range Electronegativity": 1.0099999999999998,
                    "MagpieData mean Electronegativity": 2.045,
                    "MagpieData avg_dev Electronegativity": 0.5049999999999999,
                    "MagpieData mode Electronegativity": 1.54,
                    "MagpieData std_dev Electronegativity": 0.7141778489984129,
                    "MagpieData minimum NsValence": 2.0,
                    "MagpieData maximum NsValence": 2.0,
                    "MagpieData range NsValence": 0.0,
                    "MagpieData mean NsValence": 2.0,
                    "MagpieData avg_dev NsValence": 0.0,
                    "MagpieData mode NsValence": 2.0,
                    "MagpieData std_dev NsValence": 0.0,
                    "MagpieData minimum NpValence": 0.0,
                    "MagpieData maximum NpValence": 2.0,
                    "MagpieData range NpValence": 2.0,
                    "MagpieData mean NpValence": 1.0,
                    "MagpieData avg_dev NpValence": 1.0,
                    "MagpieData mode NpValence": 0.0,
                    "MagpieData std_dev NpValence": 1.4142135623730951,
                    "MagpieData minimum NdValence": 0.0,
                    "MagpieData maximum NdValence": 2.0,
                    "MagpieData range NdValence": 2.0,
                    "MagpieData mean NdValence": 1.0,
                    "MagpieData avg_dev NdValence": 1.0,
                    "MagpieData mode NdValence": 0.0,
                    "MagpieData std_dev NdValence": 1.4142135623730951,
                    "MagpieData minimum NfValence": 0.0,
                    "MagpieData maximum NfValence": 0.0,
                    "MagpieData range NfValence": 0.0,
                    "MagpieData mean NfValence": 0.0,
                    "MagpieData avg_dev NfValence": 0.0,
                    "MagpieData mode NfValence": 0.0,
                    "MagpieData std_dev NfValence": 0.0,
                    "MagpieData minimum NValence": 4.0,
                    "MagpieData maximum NValence": 4.0,
                    "MagpieData range NValence": 0.0,
                    "MagpieData mean NValence": 4.0,
                    "MagpieData avg_dev NValence": 0.0,
                    "MagpieData mode NValence": 4.0,
                    "MagpieData std_dev NValence": 0.0,
                    "MagpieData minimum NsUnfilled": 0.0,
                    "MagpieData maximum NsUnfilled": 0.0,
                    "MagpieData range NsUnfilled": 0.0,
                    "MagpieData mean NsUnfilled": 0.0,
                    "MagpieData avg_dev NsUnfilled": 0.0,
                    "MagpieData mode NsUnfilled": 0.0,
                    "MagpieData std_dev NsUnfilled": 0.0,
                    "MagpieData minimum NpUnfilled": 0.0,
                    "MagpieData maximum NpUnfilled": 4.0,
                    "MagpieData range NpUnfilled": 4.0,
                    "MagpieData mean NpUnfilled": 2.0,
                    "MagpieData avg_dev NpUnfilled": 2.0,
                    "MagpieData mode NpUnfilled": 0.0,
                    "MagpieData std_dev NpUnfilled": 2.8284271247461903,
                    "MagpieData minimum NdUnfilled": 0.0,
                    "MagpieData maximum NdUnfilled": 8.0,
                    "MagpieData range NdUnfilled": 8.0,
                    "MagpieData mean NdUnfilled": 4.0,
                    "MagpieData avg_dev NdUnfilled": 4.0,
                    "MagpieData mode NdUnfilled": 0.0,
                    "MagpieData std_dev NdUnfilled": 5.656854249492381,
                    "MagpieData minimum NfUnfilled": 0.0,
                    "MagpieData maximum NfUnfilled": 0.0,
                    "MagpieData range NfUnfilled": 0.0,
                    "MagpieData mean NfUnfilled": 0.0,
                    "MagpieData avg_dev NfUnfilled": 0.0,
                    "MagpieData mode NfUnfilled": 0.0,
                    "MagpieData std_dev NfUnfilled": 0.0,
                    "MagpieData minimum NUnfilled": 4.0,
                    "MagpieData maximum NUnfilled": 8.0,
                    "MagpieData range NUnfilled": 4.0,
                    "MagpieData mean NUnfilled": 6.0,
                    "MagpieData avg_dev NUnfilled": 2.0,
                    "MagpieData mode NUnfilled": 4.0,
                    "MagpieData std_dev NUnfilled": 2.8284271247461903,
                    "MagpieData minimum GSvolume_pa": 5.64,
                    "MagpieData maximum GSvolume_pa": 16.69,
                    "MagpieData range GSvolume_pa": 11.05,
                    "MagpieData mean GSvolume_pa": 11.165000000000001,
                    "MagpieData avg_dev GSvolume_pa": 5.525,
                    "MagpieData mode GSvolume_pa": 5.64,
                    "MagpieData std_dev GSvolume_pa": 7.813529932111352,
                    "MagpieData minimum GSbandgap": 0.0,
                    "MagpieData maximum GSbandgap": 4.496,
                    "MagpieData range GSbandgap": 4.496,
                    "MagpieData mean GSbandgap": 2.248,
                    "MagpieData avg_dev GSbandgap": 2.248,
                    "MagpieData mode GSbandgap": 0.0,
                    "MagpieData std_dev GSbandgap": 3.179152088214718,
                    "MagpieData minimum GSmagmom": 0.0,
                    "MagpieData maximum GSmagmom": 2.25333333333e-05,
                    "MagpieData range GSmagmom": 2.25333333333e-05,
                    "MagpieData mean GSmagmom": 1.126666666665e-05,
                    "MagpieData avg_dev GSmagmom": 1.126666666665e-05,
                    "MagpieData mode GSmagmom": 0.0,
                    "MagpieData std_dev GSmagmom": 1.5933472802713303e-05,
                    "MagpieData minimum SpaceGroupNumber": 194.0,
                    "MagpieData maximum SpaceGroupNumber": 194.0,
                    "MagpieData range SpaceGroupNumber": 0.0,
                    "MagpieData mean SpaceGroupNumber": 194.0,
                    "MagpieData avg_dev SpaceGroupNumber": 0.0,
                    "MagpieData mode SpaceGroupNumber": 194.0,
                    "MagpieData std_dev SpaceGroupNumber": 0.0
                }
            }
        }
    ],
    "test_operating_temperature_celsius": 26.25,
    "min_pH_when_testing": 7.5,
    "max_pH_when_testing": 7.5,
    "test_medium_electrolyte": [
        {
            "substance_name": "water",
            "substance_type": "small molecule",
            "substance_descriptors": {
                "CID": 962,
                "MolecularFormula": "H2O",
                "MolecularWeight": "18.015",
                "CanonicalSMILES": "O",
                "IsomericSMILES": "O",
                "InChI": "InChI=1S/H2O/h1H2",
                "InChIKey": "XLYOFNOQVPJJNP-UHFFFAOYSA-N",
                "IUPACName": "oxidane",
                "XLogP": -0.5,
                "ExactMass": "18.010564683",
                "MonoisotopicMass": "18.010564683",
                "TPSA": 1,
                "Complexity": 0,
                "Charge": 0,
                "HBondDonorCount": 1,
                "HBondAcceptorCount": 1,
                "RotatableBondCount": 0,
                "HeavyAtomCount": 1,
                "IsotopeAtomCount": 0,
                "AtomStereoCount": 0,
                "DefinedAtomStereoCount": 0,
                "UndefinedAtomStereoCount": 0,
                "BondStereoCount": 0,
                "DefinedBondStereoCount": 0,
                "UndefinedBondStereoCount": 0,
                "CovalentUnitCount": 1,
                "Volume3D": 14.7,
                "XStericQuadrupole3D": 0.49,
                "YStericQuadrupole3D": 0.49,
                "ZStericQuadrupole3D": 0.49,
                "FeatureAcceptorCount3D": 1,
                "FeatureDonorCount3D": 1,
                "FeatureAnionCount3D": 0,
                "FeatureCationCount3D": 0,
                "FeatureRingCount3D": 0,
                "FeatureHydrophobeCount3D": 0,
                "ConformerModelRMSD3D": 0.4,
                "EffectiveRotorCount3D": 0,
                "ConformerCount3D": 1,
                "Morgan_128": [
                    0,
                    0,
                    0,
                    0,
                    0,
                    0,
                    0,
                    0,
                    0,
                    0,
                    0,
                    0,
                    0,
                    0,
                    0,
                    0,
                    0,
                    0,
                    0,
                    0,
                    0,
                    0,
                    1,
                    0,
                    0,
                    0,
                    0,
                    0,
                    0,
                    0,
                    0,
                    0,
                    0,
                    0,
                    0,
                    0,
                    0,
                    0,
                    0,
                    0,
                    0,
                    0,
                    0,
                    0,
                    0,
                    0,
                    0,
                    0,
                    0,
                    0,
                    0,
                    0,
                    0,
                    0,
                    0,
                    0,
                    0,
                    0,
                    0,
                    0,
                    0,
                    0,
                    0,
                    0,
                    0,
                    0,
                    0,
                    0,
                    0,
                    0,
                    0,
                    0,
                    0,
                    0,
                    0,
                    0,
                    0,
                    0,
                    0,
                    0,
                    0,
                    0,
                    0,
                    0,
                    0,
                    0,
                    0,
                    0,
                    0,
                    0,
                    0,
                    0,
                    0,
                    0,
                    0,
                    0,
                    0,
                    0,
                    0,
                    0,
                    0,
                    0,
                    0,
                    0,
                    0,
                    0,
                    0,
                    0,
                    0,
                    0,
                    0,
                    0,
                    0,
                    0,
                    0,
                    0,
                    0,
                    0,
                    0,
                    0,
                    0,
                    0,
                    0,
                    0,
                    0,
                    0,
                    0,
                    0
                ]
            }
        }
    ],
    "LDL_ranking": 1.0,
    "UDL_ranking": 1.0,
    "LDL_category": "Moderate Detection",
    "UDL_category": "Moderate UDL Range"
}