{
    "DOI": "10.1016/j.matchemphys.2012.09.037",
    "sensor_type": "gas",
    "detect_target": [
        {
            "substance_name": "hydrogen",
            "substance_type": "small molecule",
            "substance_descriptors": {
                "CID": 783,
                "MolecularFormula": "H2",
                "MolecularWeight": "2.016",
                "CanonicalSMILES": "[HH]",
                "IsomericSMILES": "[HH]",
                "InChI": "InChI=1S/H2/h1H",
                "InChIKey": "UFHFLCQGNIYNRP-UHFFFAOYSA-N",
                "IUPACName": "molecular hydrogen",
                "XLogP": 0,
                "ExactMass": "2.0156500638",
                "MonoisotopicMass": "2.0156500638",
                "TPSA": 0,
                "Complexity": 0,
                "Charge": 0,
                "HBondDonorCount": 0,
                "HBondAcceptorCount": 0,
                "RotatableBondCount": 0,
                "HeavyAtomCount": 0,
                "IsotopeAtomCount": 0,
                "AtomStereoCount": 0,
                "DefinedAtomStereoCount": 0,
                "UndefinedAtomStereoCount": 0,
                "BondStereoCount": 0,
                "DefinedBondStereoCount": 0,
                "UndefinedBondStereoCount": 0,
                "CovalentUnitCount": 1,
                "ConformerCount3D": 0,
                "Morgan_128": [
                    0,
                    0,
                    0,
                    0,
                    0,
                    0,
                    0,
                    1,
                    0,
                    0,
                    0,
                    0,
                    0,
                    0,
                    0,
                    0,
                    0,
                    0,
                    0,
                    0,
                    0,
                    0,
                    0,
                    0,
                    0,
                    0,
                    0,
                    0,
                    0,
                    0,
                    0,
                    0,
                    0,
                    0,
                    0,
                    0,
                    0,
                    0,
                    0,
                    0,
                    0,
                    0,
                    0,
                    0,
                    0,
                    0,
                    0,
                    0,
                    0,
                    0,
                    0,
                    0,
                    0,
                    0,
                    0,
                    0,
                    0,
                    0,
                    0,
                    0,
                    0,
                    0,
                    0,
                    0,
                    0,
                    0,
                    0,
                    0,
                    0,
                    0,
                    0,
                    0,
                    0,
                    0,
                    0,
                    0,
                    0,
                    0,
                    0,
                    0,
                    0,
                    0,
                    0,
                    0,
                    0,
                    0,
                    0,
                    0,
                    0,
                    0,
                    0,
                    0,
                    0,
                    0,
                    0,
                    0,
                    0,
                    0,
                    0,
                    0,
                    0,
                    0,
                    0,
                    0,
                    0,
                    0,
                    0,
                    0,
                    0,
                    0,
                    0,
                    0,
                    0,
                    0,
                    0,
                    0,
                    0,
                    0,
                    0,
                    0,
                    0,
                    0,
                    0,
                    0,
                    0,
                    0,
                    0,
                    0
                ]
            }
        }
    ],
    "lower_detection_limit_log_ppm": 3.301029996,
    "upper_detection_limit_log_ppm": null,
    "probe_material": [
        {
            "substance_name": "ruthenium dioxide",
            "substance_type": "inorganic solid",
            "substance_descriptors": {
                "Number of Elements": 2,
                "Element Types": [
                    "O",
                    "Ru"
                ],
                "Number of Atoms in Unit Cell": 6,
                "Lattice Parameter a (\u00c5)": "4.4968",
                "Lattice Parameter b (\u00c5)": "4.4968",
                "Lattice Parameter c (\u00c5)": "3.1049",
                "Lattice Angle alpha (degrees)": "90",
                "Lattice Angle beta (degrees)": "90",
                "Lattice Angle gamma (degrees)": "90",
                "Unit Cell Volume (\u00c5\u00b3)": 62.515586451455455,
                "Density (g/cm\u00b3)": 7.0691471835481,
                "Space Group Number": 136,
                "Is Metallic (1/0)": 1,
                "Band Gap (eV)": 0.0,
                "Formation Energy per Atom (eV)": -1.2098036650000026,
                "Energy Above Hull (eV/atom)": 0.0,
                "Energy per Atom (eV/atom)": -13.65841578,
                "Total Magnetization (\u03bcB)": 1e-07,
                "Magnetic Ordering": "NM",
                "Bulk Modulus (GPa)": 252.231,
                "Shear Modulus (GPa)": 96.302,
                "Fermi Energy (eV)": 4.57067993,
                "Total Energy (eV)": -5.37851,
                "Crystal System": "tetragonal",
                "Magpie Descriptors": {
                    "MagpieData minimum Number": 8.0,
                    "MagpieData maximum Number": 44.0,
                    "MagpieData range Number": 36.0,
                    "MagpieData mean Number": 32.0,
                    "MagpieData avg_dev Number": 16.0,
                    "MagpieData mode Number": 44.0,
                    "MagpieData std_dev Number": 25.45584412271571,
                    "MagpieData minimum MendeleevNumber": 56.0,
                    "MagpieData maximum MendeleevNumber": 87.0,
                    "MagpieData range MendeleevNumber": 31.0,
                    "MagpieData mean MendeleevNumber": 66.33333333333333,
                    "MagpieData avg_dev MendeleevNumber": 13.777777777777775,
                    "MagpieData mode MendeleevNumber": 56.0,
                    "MagpieData std_dev MendeleevNumber": 21.920310216782973,
                    "MagpieData minimum AtomicWeight": 15.9994,
                    "MagpieData maximum AtomicWeight": 101.07,
                    "MagpieData range AtomicWeight": 85.0706,
                    "MagpieData mean AtomicWeight": 72.71313333333333,
                    "MagpieData avg_dev AtomicWeight": 37.80915555555555,
                    "MagpieData mode AtomicWeight": 101.07,
                    "MagpieData std_dev AtomicWeight": 60.1539981396083,
                    "MagpieData minimum MeltingT": 54.8,
                    "MagpieData maximum MeltingT": 2607.0,
                    "MagpieData range MeltingT": 2552.2,
                    "MagpieData mean MeltingT": 1756.2666666666667,
                    "MagpieData avg_dev MeltingT": 1134.3111111111111,
                    "MagpieData mode MeltingT": 2607.0,
                    "MagpieData std_dev MeltingT": 1804.6779269443066,
                    "MagpieData minimum Column": 8.0,
                    "MagpieData maximum Column": 16.0,
                    "MagpieData range Column": 8.0,
                    "MagpieData mean Column": 10.666666666666666,
                    "MagpieData avg_dev Column": 3.5555555555555554,
                    "MagpieData mode Column": 8.0,
                    "MagpieData std_dev Column": 5.656854249492381,
                    "MagpieData minimum Row": 2.0,
                    "MagpieData maximum Row": 5.0,
                    "MagpieData range Row": 3.0,
                    "MagpieData mean Row": 3.9999999999999996,
                    "MagpieData avg_dev Row": 1.3333333333333335,
                    "MagpieData mode Row": 5.0,
                    "MagpieData std_dev Row": 2.1213203435596424,
                    "MagpieData minimum CovalentRadius": 66.0,
                    "MagpieData maximum CovalentRadius": 146.0,
                    "MagpieData range CovalentRadius": 80.0,
                    "MagpieData mean CovalentRadius": 119.33333333333333,
                    "MagpieData avg_dev CovalentRadius": 35.55555555555556,
                    "MagpieData mode CovalentRadius": 146.0,
                    "MagpieData std_dev CovalentRadius": 56.568542494923804,
                    "MagpieData minimum Electronegativity": 2.2,
                    "MagpieData maximum Electronegativity": 3.44,
                    "MagpieData range Electronegativity": 1.2399999999999998,
                    "MagpieData mean Electronegativity": 2.6133333333333333,
                    "MagpieData avg_dev Electronegativity": 0.5511111111111109,
                    "MagpieData mode Electronegativity": 2.2,
                    "MagpieData std_dev Electronegativity": 0.8768124086713187,
                    "MagpieData minimum NsValence": 1.0,
                    "MagpieData maximum NsValence": 2.0,
                    "MagpieData range NsValence": 1.0,
                    "MagpieData mean NsValence": 1.3333333333333333,
                    "MagpieData avg_dev NsValence": 0.4444444444444444,
                    "MagpieData mode NsValence": 1.0,
                    "MagpieData std_dev NsValence": 0.7071067811865476,
                    "MagpieData minimum NpValence": 0.0,
                    "MagpieData maximum NpValence": 4.0,
                    "MagpieData range NpValence": 4.0,
                    "MagpieData mean NpValence": 1.3333333333333333,
                    "MagpieData avg_dev NpValence": 1.7777777777777777,
                    "MagpieData mode NpValence": 0.0,
                    "MagpieData std_dev NpValence": 2.8284271247461903,
                    "MagpieData minimum NdValence": 0.0,
                    "MagpieData maximum NdValence": 7.0,
                    "MagpieData range NdValence": 7.0,
                    "MagpieData mean NdValence": 4.666666666666666,
                    "MagpieData avg_dev NdValence": 3.111111111111111,
                    "MagpieData mode NdValence": 7.0,
                    "MagpieData std_dev NdValence": 4.949747468305833,
                    "MagpieData minimum NfValence": 0.0,
                    "MagpieData maximum NfValence": 0.0,
                    "MagpieData range NfValence": 0.0,
                    "MagpieData mean NfValence": 0.0,
                    "MagpieData avg_dev NfValence": 0.0,
                    "MagpieData mode NfValence": 0.0,
                    "MagpieData std_dev NfValence": 0.0,
                    "MagpieData minimum NValence": 6.0,
                    "MagpieData maximum NValence": 8.0,
                    "MagpieData range NValence": 2.0,
                    "MagpieData mean NValence": 7.333333333333333,
                    "MagpieData avg_dev NValence": 0.888888888888889,
                    "MagpieData mode NValence": 8.0,
                    "MagpieData std_dev NValence": 1.4142135623730951,
                    "MagpieData minimum NsUnfilled": 0.0,
                    "MagpieData maximum NsUnfilled": 1.0,
                    "MagpieData range NsUnfilled": 1.0,
                    "MagpieData mean NsUnfilled": 0.6666666666666666,
                    "MagpieData avg_dev NsUnfilled": 0.4444444444444444,
                    "MagpieData mode NsUnfilled": 1.0,
                    "MagpieData std_dev NsUnfilled": 0.7071067811865476,
                    "MagpieData minimum NpUnfilled": 0.0,
                    "MagpieData maximum NpUnfilled": 2.0,
                    "MagpieData range NpUnfilled": 2.0,
                    "MagpieData mean NpUnfilled": 0.6666666666666666,
                    "MagpieData avg_dev NpUnfilled": 0.8888888888888888,
                    "MagpieData mode NpUnfilled": 0.0,
                    "MagpieData std_dev NpUnfilled": 1.4142135623730951,
                    "MagpieData minimum NdUnfilled": 0.0,
                    "MagpieData maximum NdUnfilled": 3.0,
                    "MagpieData range NdUnfilled": 3.0,
                    "MagpieData mean NdUnfilled": 2.0,
                    "MagpieData avg_dev NdUnfilled": 1.3333333333333333,
                    "MagpieData mode NdUnfilled": 3.0,
                    "MagpieData std_dev NdUnfilled": 2.1213203435596424,
                    "MagpieData minimum NfUnfilled": 0.0,
                    "MagpieData maximum NfUnfilled": 0.0,
                    "MagpieData range NfUnfilled": 0.0,
                    "MagpieData mean NfUnfilled": 0.0,
                    "MagpieData avg_dev NfUnfilled": 0.0,
                    "MagpieData mode NfUnfilled": 0.0,
                    "MagpieData std_dev NfUnfilled": 0.0,
                    "MagpieData minimum NUnfilled": 2.0,
                    "MagpieData maximum NUnfilled": 4.0,
                    "MagpieData range NUnfilled": 2.0,
                    "MagpieData mean NUnfilled": 3.333333333333333,
                    "MagpieData avg_dev NUnfilled": 0.888888888888889,
                    "MagpieData mode NUnfilled": 4.0,
                    "MagpieData std_dev NUnfilled": 1.4142135623730951,
                    "MagpieData minimum GSvolume_pa": 9.105,
                    "MagpieData maximum GSvolume_pa": 13.51,
                    "MagpieData range GSvolume_pa": 4.404999999999999,
                    "MagpieData mean GSvolume_pa": 12.041666666666666,
                    "MagpieData avg_dev GSvolume_pa": 1.9577777777777776,
                    "MagpieData mode GSvolume_pa": 13.51,
                    "MagpieData std_dev GSvolume_pa": 3.114805371126742,
                    "MagpieData minimum GSbandgap": 0.0,
                    "MagpieData maximum GSbandgap": 0.0,
                    "MagpieData range GSbandgap": 0.0,
                    "MagpieData mean GSbandgap": 0.0,
                    "MagpieData avg_dev GSbandgap": 0.0,
                    "MagpieData mode GSbandgap": 0.0,
                    "MagpieData std_dev GSbandgap": 0.0,
                    "MagpieData minimum GSmagmom": 0.0,
                    "MagpieData maximum GSmagmom": 0.0,
                    "MagpieData range GSmagmom": 0.0,
                    "MagpieData mean GSmagmom": 0.0,
                    "MagpieData avg_dev GSmagmom": 0.0,
                    "MagpieData mode GSmagmom": 0.0,
                    "MagpieData std_dev GSmagmom": 0.0,
                    "MagpieData minimum SpaceGroupNumber": 12.0,
                    "MagpieData maximum SpaceGroupNumber": 194.0,
                    "MagpieData range SpaceGroupNumber": 182.0,
                    "MagpieData mean SpaceGroupNumber": 133.33333333333331,
                    "MagpieData avg_dev SpaceGroupNumber": 80.88888888888889,
                    "MagpieData mode SpaceGroupNumber": 194.0,
                    "MagpieData std_dev SpaceGroupNumber": 128.69343417595164
                }
            }
        }
    ],
    "test_operating_temperature_celsius": 26.25,
    "min_pH_when_testing": -1.0,
    "max_pH_when_testing": -1.0,
    "test_medium_electrolyte": [
        {
            "substance_name": "argon",
            "substance_type": "small molecule",
            "substance_descriptors": {
                "CID": 23968,
                "MolecularFormula": "Ar",
                "MolecularWeight": "39.9",
                "CanonicalSMILES": "[Ar]",
                "IsomericSMILES": "[Ar]",
                "InChI": "InChI=1S/Ar",
                "InChIKey": "XKRFYHLGVUSROY-UHFFFAOYSA-N",
                "IUPACName": "argon",
                "ExactMass": "39.96238312",
                "MonoisotopicMass": "39.96238312",
                "TPSA": 0,
                "Complexity": 0,
                "Charge": 0,
                "HBondDonorCount": 0,
                "HBondAcceptorCount": 0,
                "RotatableBondCount": 0,
                "HeavyAtomCount": 1,
                "IsotopeAtomCount": 0,
                "AtomStereoCount": 0,
                "DefinedAtomStereoCount": 0,
                "UndefinedAtomStereoCount": 0,
                "BondStereoCount": 0,
                "DefinedBondStereoCount": 0,
                "UndefinedBondStereoCount": 0,
                "CovalentUnitCount": 1,
                "ConformerCount3D": 0,
                "Morgan_128": [
                    0,
                    0,
                    0,
                    0,
                    0,
                    0,
                    0,
                    0,
                    0,
                    0,
                    0,
                    0,
                    0,
                    0,
                    0,
                    0,
                    0,
                    0,
                    0,
                    0,
                    0,
                    0,
                    0,
                    0,
                    0,
                    0,
                    0,
                    0,
                    0,
                    0,
                    0,
                    0,
                    0,
                    0,
                    0,
                    0,
                    0,
                    0,
                    0,
                    0,
                    0,
                    1,
                    0,
                    0,
                    0,
                    0,
                    0,
                    0,
                    0,
                    0,
                    0,
                    0,
                    0,
                    0,
                    0,
                    0,
                    0,
                    0,
                    0,
                    0,
                    0,
                    0,
                    0,
                    0,
                    0,
                    0,
                    0,
                    0,
                    0,
                    0,
                    0,
                    0,
                    0,
                    0,
                    0,
                    0,
                    0,
                    0,
                    0,
                    0,
                    0,
                    0,
                    0,
                    0,
                    0,
                    0,
                    0,
                    0,
                    0,
                    0,
                    0,
                    0,
                    0,
                    0,
                    0,
                    0,
                    0,
                    0,
                    0,
                    0,
                    0,
                    0,
                    0,
                    0,
                    0,
                    0,
                    0,
                    0,
                    0,
                    0,
                    0,
                    0,
                    0,
                    0,
                    0,
                    0,
                    0,
                    0,
                    0,
                    0,
                    0,
                    0,
                    0,
                    0,
                    0,
                    0,
                    0,
                    0
                ]
            }
        }
    ],
    "LDL_ranking": 1.0,
    "UDL_ranking": null,
    "LDL_category": "Very High Detection (Low Sensitivity)",
    "UDL_category": null
}