{
    "DOI": "10.1149/1.3547723",
    "sensor_type": "liquid",
    "detect_target": [
        {
            "substance_name": "urea",
            "substance_type": "small molecule",
            "substance_descriptors": {
                "CID": 1176,
                "MolecularFormula": "CH4N2O",
                "MolecularWeight": "60.056",
                "CanonicalSMILES": "C(=O)(N)N",
                "IsomericSMILES": "C(=O)(N)N",
                "InChI": "InChI=1S/CH4N2O/c2-1(3)4/h(H4,2,3,4)",
                "InChIKey": "XSQUKJJJFZCRTK-UHFFFAOYSA-N",
                "IUPACName": "urea",
                "XLogP": -1.4,
                "ExactMass": "60.032362755",
                "MonoisotopicMass": "60.032362755",
                "TPSA": 69.1,
                "Complexity": 29,
                "Charge": 0,
                "HBondDonorCount": 2,
                "HBondAcceptorCount": 1,
                "RotatableBondCount": 0,
                "HeavyAtomCount": 4,
                "IsotopeAtomCount": 0,
                "AtomStereoCount": 0,
                "DefinedAtomStereoCount": 0,
                "UndefinedAtomStereoCount": 0,
                "BondStereoCount": 0,
                "DefinedBondStereoCount": 0,
                "UndefinedBondStereoCount": 0,
                "CovalentUnitCount": 1,
                "Volume3D": 44.1,
                "XStericQuadrupole3D": 1.16,
                "YStericQuadrupole3D": 1.14,
                "ZStericQuadrupole3D": 0.54,
                "FeatureAcceptorCount3D": 1,
                "FeatureDonorCount3D": 2,
                "FeatureAnionCount3D": 0,
                "FeatureCationCount3D": 0,
                "FeatureRingCount3D": 0,
                "FeatureHydrophobeCount3D": 0,
                "ConformerModelRMSD3D": 0.4,
                "EffectiveRotorCount3D": 0,
                "ConformerCount3D": 1,
                "Morgan_128": [
                    0,
                    0,
                    0,
                    0,
                    0,
                    0,
                    0,
                    0,
                    0,
                    0,
                    1,
                    0,
                    1,
                    0,
                    0,
                    0,
                    0,
                    0,
                    0,
                    1,
                    0,
                    0,
                    0,
                    0,
                    0,
                    0,
                    1,
                    0,
                    0,
                    0,
                    0,
                    0,
                    0,
                    0,
                    0,
                    0,
                    0,
                    0,
                    0,
                    1,
                    0,
                    0,
                    0,
                    0,
                    0,
                    0,
                    0,
                    0,
                    0,
                    0,
                    0,
                    0,
                    0,
                    0,
                    0,
                    0,
                    0,
                    0,
                    0,
                    0,
                    0,
                    0,
                    0,
                    0,
                    0,
                    0,
                    0,
                    0,
                    0,
                    0,
                    0,
                    0,
                    0,
                    0,
                    0,
                    0,
                    0,
                    0,
                    0,
                    0,
                    0,
                    0,
                    0,
                    0,
                    0,
                    0,
                    0,
                    0,
                    0,
                    0,
                    0,
                    0,
                    0,
                    0,
                    0,
                    0,
                    0,
                    0,
                    0,
                    0,
                    0,
                    0,
                    0,
                    0,
                    0,
                    0,
                    0,
                    0,
                    0,
                    0,
                    0,
                    0,
                    0,
                    0,
                    0,
                    0,
                    0,
                    0,
                    0,
                    0,
                    0,
                    0,
                    0,
                    0,
                    0,
                    1,
                    0,
                    0
                ]
            }
        }
    ],
    "lower_detection_limit_log_ppm": 1.77815125,
    "upper_detection_limit_log_ppm": 3.283301229,
    "probe_material": [
        {
            "substance_name": "dysprosium(iii) titanium dioxide",
            "substance_type": "inorganic solid",
            "substance_descriptors": {
                "Number of Elements": 3,
                "Element Types": [
                    "O",
                    "Dy",
                    "Ti"
                ],
                "Number of Atoms in Unit Cell": 32,
                "Lattice Parameter a (\u00c5)": "10.3189",
                "Lattice Parameter b (\u00c5)": "10.3189",
                "Lattice Parameter c (\u00c5)": "10.3189",
                "Lattice Angle alpha (degrees)": "90",
                "Lattice Angle beta (degrees)": "90",
                "Lattice Angle gamma (degrees)": "90",
                "Unit Cell Volume (\u00c5\u00b3)": 428.00601382656845,
                "Density (g/cm\u00b3)": 7.027923342791705,
                "Space Group Number": 15,
                "Band Gap (eV)": 3.2941000000000003,
                "Is Metallic (1/0)": 0,
                "Formation Energy per Atom (eV)": -3.7794945514583347,
                "Energy Above Hull (eV/atom)": 0.0,
                "Energy per Atom (eV/atom)": -17.1175715625,
                "Total Magnetization (\u03bcB)": 0.0,
                "Magnetic Ordering": "NM",
                "Bulk Modulus (GPa)": -99999,
                "Shear Modulus (GPa)": -99999,
                "Fermi Energy (eV)": 1.83827838,
                "Total Energy (eV)": -6.70426,
                "Crystal System": "monoclinic",
                "Magpie Descriptors": {
                    "MagpieData minimum Number": 8.0,
                    "MagpieData maximum Number": 66.0,
                    "MagpieData range Number": 58.0,
                    "MagpieData mean Number": 24.0,
                    "MagpieData avg_dev Number": 10.5,
                    "MagpieData mode Number": 22.0,
                    "MagpieData std_dev Number": 23.24296224919808,
                    "MagpieData minimum MendeleevNumber": 31.0,
                    "MagpieData maximum MendeleevNumber": 87.0,
                    "MagpieData range MendeleevNumber": 56.0,
                    "MagpieData mean MendeleevNumber": 52.5,
                    "MagpieData avg_dev MendeleevNumber": 17.25,
                    "MagpieData mode MendeleevNumber": 43.0,
                    "MagpieData std_dev MendeleevNumber": 27.839878295880027,
                    "MagpieData minimum AtomicWeight": 15.9994,
                    "MagpieData maximum AtomicWeight": 162.5,
                    "MagpieData range AtomicWeight": 146.5006,
                    "MagpieData mean AtomicWeight": 54.229225,
                    "MagpieData avg_dev AtomicWeight": 27.06769375,
                    "MagpieData mode AtomicWeight": 47.867,
                    "MagpieData std_dev AtomicWeight": 59.107059980254576,
                    "MagpieData minimum MeltingT": 54.8,
                    "MagpieData maximum MeltingT": 1941.0,
                    "MagpieData range MeltingT": 1886.2,
                    "MagpieData mean MeltingT": 1437.45,
                    "MagpieData avg_dev MeltingT": 691.325,
                    "MagpieData mode MeltingT": 1941.0,
                    "MagpieData std_dev MeltingT": 1101.0728522138547,
                    "MagpieData minimum Column": 3.0,
                    "MagpieData maximum Column": 16.0,
                    "MagpieData range Column": 13.0,
                    "MagpieData mean Column": 6.875,
                    "MagpieData avg_dev Column": 4.5625,
                    "MagpieData mode Column": 4.0,
                    "MagpieData std_dev Column": 7.241628026251296,
                    "MagpieData minimum Row": 2.0,
                    "MagpieData maximum Row": 6.0,
                    "MagpieData range Row": 4.0,
                    "MagpieData mean Row": 3.75,
                    "MagpieData avg_dev Row": 0.875,
                    "MagpieData mode Row": 4.0,
                    "MagpieData std_dev Row": 1.6449566416599486,
                    "MagpieData minimum CovalentRadius": 66.0,
                    "MagpieData maximum CovalentRadius": 192.0,
                    "MagpieData range CovalentRadius": 126.0,
                    "MagpieData mean CovalentRadius": 140.5,
                    "MagpieData avg_dev CovalentRadius": 37.25,
                    "MagpieData mode CovalentRadius": 160.0,
                    "MagpieData std_dev CovalentRadius": 60.6901484398173,
                    "MagpieData minimum Electronegativity": 1.22,
                    "MagpieData maximum Electronegativity": 3.44,
                    "MagpieData range Electronegativity": 2.2199999999999998,
                    "MagpieData mean Electronegativity": 1.975,
                    "MagpieData avg_dev Electronegativity": 0.7324999999999999,
                    "MagpieData mode Electronegativity": 1.54,
                    "MagpieData std_dev Electronegativity": 1.1690720301866373,
                    "MagpieData minimum NsValence": 2.0,
                    "MagpieData maximum NsValence": 2.0,
                    "MagpieData range NsValence": 0.0,
                    "MagpieData mean NsValence": 2.0,
                    "MagpieData avg_dev NsValence": 0.0,
                    "MagpieData mode NsValence": 2.0,
                    "MagpieData std_dev NsValence": 0.0,
                    "MagpieData minimum NpValence": 0.0,
                    "MagpieData maximum NpValence": 4.0,
                    "MagpieData range NpValence": 4.0,
                    "MagpieData mean NpValence": 1.0,
                    "MagpieData avg_dev NpValence": 1.5,
                    "MagpieData mode NpValence": 0.0,
                    "MagpieData std_dev NpValence": 2.3763541031440183,
                    "MagpieData minimum NdValence": 0.0,
                    "MagpieData maximum NdValence": 2.0,
                    "MagpieData range NdValence": 2.0,
                    "MagpieData mean NdValence": 1.25,
                    "MagpieData avg_dev NdValence": 0.9375,
                    "MagpieData mode NdValence": 2.0,
                    "MagpieData std_dev NdValence": 1.3284223283101428,
                    "MagpieData minimum NfValence": 0.0,
                    "MagpieData maximum NfValence": 10.0,
                    "MagpieData range NfValence": 10.0,
                    "MagpieData mean NfValence": 1.25,
                    "MagpieData avg_dev NfValence": 2.1875,
                    "MagpieData mode NfValence": 0.0,
                    "MagpieData std_dev NfValence": 4.5374260648651505,
                    "MagpieData minimum NValence": 4.0,
                    "MagpieData maximum NValence": 12.0,
                    "MagpieData range NValence": 8.0,
                    "MagpieData mean NValence": 5.5,
                    "MagpieData avg_dev NValence": 1.875,
                    "MagpieData mode NValence": 4.0,
                    "MagpieData std_dev NValence": 3.564531154716027,
                    "MagpieData minimum NsUnfilled": 0.0,
                    "MagpieData maximum NsUnfilled": 0.0,
                    "MagpieData range NsUnfilled": 0.0,
                    "MagpieData mean NsUnfilled": 0.0,
                    "MagpieData avg_dev NsUnfilled": 0.0,
                    "MagpieData mode NsUnfilled": 0.0,
                    "MagpieData std_dev NsUnfilled": 0.0,
                    "MagpieData minimum NpUnfilled": 0.0,
                    "MagpieData maximum NpUnfilled": 2.0,
                    "MagpieData range NpUnfilled": 2.0,
                    "MagpieData mean NpUnfilled": 0.5,
                    "MagpieData avg_dev NpUnfilled": 0.75,
                    "MagpieData mode NpUnfilled": 0.0,
                    "MagpieData std_dev NpUnfilled": 1.1881770515720091,
                    "MagpieData minimum NdUnfilled": 0.0,
                    "MagpieData maximum NdUnfilled": 8.0,
                    "MagpieData range NdUnfilled": 8.0,
                    "MagpieData mean NdUnfilled": 5.0,
                    "MagpieData avg_dev NdUnfilled": 3.75,
                    "MagpieData mode NdUnfilled": 8.0,
                    "MagpieData std_dev NdUnfilled": 5.313689313240571,
                    "MagpieData minimum NfUnfilled": 0.0,
                    "MagpieData maximum NfUnfilled": 4.0,
                    "MagpieData range NfUnfilled": 4.0,
                    "MagpieData mean NfUnfilled": 0.5,
                    "MagpieData avg_dev NfUnfilled": 0.875,
                    "MagpieData mode NfUnfilled": 0.0,
                    "MagpieData std_dev NfUnfilled": 1.8149704259460602,
                    "MagpieData minimum NUnfilled": 2.0,
                    "MagpieData maximum NUnfilled": 8.0,
                    "MagpieData range NUnfilled": 6.0,
                    "MagpieData mean NUnfilled": 6.0,
                    "MagpieData avg_dev NUnfilled": 2.5,
                    "MagpieData mode NUnfilled": 8.0,
                    "MagpieData std_dev NUnfilled": 3.6299408518921203,
                    "MagpieData minimum GSvolume_pa": 9.105,
                    "MagpieData maximum GSvolume_pa": 31.24,
                    "MagpieData range GSvolume_pa": 22.134999999999998,
                    "MagpieData mean GSvolume_pa": 16.6125,
                    "MagpieData avg_dev GSvolume_pa": 3.75375,
                    "MagpieData mode GSvolume_pa": 16.69,
                    "MagpieData std_dev GSvolume_pa": 8.767840971078206,
                    "MagpieData minimum GSbandgap": 0.0,
                    "MagpieData maximum GSbandgap": 0.0,
                    "MagpieData range GSbandgap": 0.0,
                    "MagpieData mean GSbandgap": 0.0,
                    "MagpieData avg_dev GSbandgap": 0.0,
                    "MagpieData mode GSbandgap": 0.0,
                    "MagpieData std_dev GSbandgap": 0.0,
                    "MagpieData minimum GSmagmom": 0.0,
                    "MagpieData maximum GSmagmom": 2.25333333333e-05,
                    "MagpieData range GSmagmom": 2.25333333333e-05,
                    "MagpieData mean GSmagmom": 1.4083333333312501e-05,
                    "MagpieData avg_dev GSmagmom": 1.0562499999984377e-05,
                    "MagpieData mode GSmagmom": 2.25333333333e-05,
                    "MagpieData std_dev GSmagmom": 1.496689156560547e-05,
                    "MagpieData minimum SpaceGroupNumber": 12.0,
                    "MagpieData maximum SpaceGroupNumber": 194.0,
                    "MagpieData range SpaceGroupNumber": 182.0,
                    "MagpieData mean SpaceGroupNumber": 148.5,
                    "MagpieData avg_dev SpaceGroupNumber": 68.25,
                    "MagpieData mode SpaceGroupNumber": 194.0,
                    "MagpieData std_dev SpaceGroupNumber": 108.12411169305282
                }
            }
        }
    ],
    "test_operating_temperature_celsius": 22.5,
    "min_pH_when_testing": 7.9,
    "max_pH_when_testing": 7.9,
    "test_medium_electrolyte": [
        {
            "substance_name": "sodium chloride",
            "substance_type": "small molecule",
            "substance_descriptors": {
                "CID": 5234,
                "MolecularFormula": "ClNa",
                "MolecularWeight": "58.44",
                "CanonicalSMILES": "[Na+].[Cl-]",
                "IsomericSMILES": "[Na+].[Cl-]",
                "InChI": "InChI=1S/ClH.Na/h1H;/q;+1/p-1",
                "InChIKey": "FAPWRFPIFSIZLT-UHFFFAOYSA-M",
                "IUPACName": "sodium;chloride",
                "ExactMass": "57.9586220",
                "MonoisotopicMass": "57.9586220",
                "TPSA": 0,
                "Complexity": 2,
                "Charge": 0,
                "HBondDonorCount": 0,
                "HBondAcceptorCount": 1,
                "RotatableBondCount": 0,
                "HeavyAtomCount": 2,
                "IsotopeAtomCount": 0,
                "AtomStereoCount": 0,
                "DefinedAtomStereoCount": 0,
                "UndefinedAtomStereoCount": 0,
                "BondStereoCount": 0,
                "DefinedBondStereoCount": 0,
                "UndefinedBondStereoCount": 0,
                "CovalentUnitCount": 2,
                "ConformerCount3D": 0,
                "Morgan_128": [
                    0,
                    0,
                    0,
                    0,
                    0,
                    0,
                    0,
                    0,
                    0,
                    0,
                    0,
                    0,
                    0,
                    0,
                    0,
                    0,
                    0,
                    0,
                    0,
                    0,
                    0,
                    0,
                    0,
                    0,
                    0,
                    0,
                    0,
                    0,
                    0,
                    0,
                    0,
                    0,
                    0,
                    0,
                    0,
                    0,
                    0,
                    0,
                    0,
                    0,
                    0,
                    0,
                    0,
                    0,
                    0,
                    0,
                    0,
                    0,
                    0,
                    0,
                    0,
                    0,
                    0,
                    0,
                    0,
                    0,
                    0,
                    0,
                    0,
                    0,
                    0,
                    1,
                    0,
                    0,
                    0,
                    0,
                    0,
                    0,
                    0,
                    0,
                    0,
                    0,
                    0,
                    0,
                    1,
                    0,
                    0,
                    0,
                    0,
                    0,
                    0,
                    0,
                    0,
                    0,
                    0,
                    0,
                    0,
                    0,
                    0,
                    0,
                    0,
                    0,
                    0,
                    0,
                    0,
                    0,
                    0,
                    0,
                    0,
                    0,
                    0,
                    0,
                    0,
                    0,
                    0,
                    0,
                    0,
                    0,
                    0,
                    0,
                    0,
                    0,
                    0,
                    0,
                    0,
                    0,
                    0,
                    0,
                    0,
                    0,
                    0,
                    0,
                    0,
                    0,
                    0,
                    0,
                    0,
                    0
                ]
            }
        },
        {
            "substance_name": "potassium chloride",
            "substance_type": "small molecule",
            "substance_descriptors": {
                "CID": 4873,
                "MolecularFormula": "ClK",
                "MolecularWeight": "74.55",
                "CanonicalSMILES": "[Cl-].[K+]",
                "IsomericSMILES": "[Cl-].[K+]",
                "InChI": "InChI=1S/ClH.K/h1H;/q;+1/p-1",
                "InChIKey": "WCUXLLCKKVVCTQ-UHFFFAOYSA-M",
                "IUPACName": "potassium;chloride",
                "ExactMass": "73.9325592",
                "MonoisotopicMass": "73.9325592",
                "TPSA": 0,
                "Complexity": 2,
                "Charge": 0,
                "HBondDonorCount": 0,
                "HBondAcceptorCount": 1,
                "RotatableBondCount": 0,
                "HeavyAtomCount": 2,
                "IsotopeAtomCount": 0,
                "AtomStereoCount": 0,
                "DefinedAtomStereoCount": 0,
                "UndefinedAtomStereoCount": 0,
                "BondStereoCount": 0,
                "DefinedBondStereoCount": 0,
                "UndefinedBondStereoCount": 0,
                "CovalentUnitCount": 2,
                "ConformerCount3D": 0,
                "Morgan_128": [
                    0,
                    0,
                    0,
                    0,
                    0,
                    0,
                    0,
                    0,
                    0,
                    0,
                    0,
                    0,
                    0,
                    0,
                    0,
                    0,
                    0,
                    0,
                    0,
                    0,
                    0,
                    0,
                    0,
                    0,
                    0,
                    0,
                    0,
                    0,
                    0,
                    0,
                    0,
                    0,
                    0,
                    0,
                    0,
                    0,
                    0,
                    0,
                    0,
                    0,
                    0,
                    0,
                    0,
                    0,
                    0,
                    0,
                    0,
                    0,
                    0,
                    0,
                    0,
                    0,
                    0,
                    0,
                    0,
                    0,
                    0,
                    0,
                    0,
                    0,
                    0,
                    0,
                    0,
                    0,
                    0,
                    0,
                    0,
                    0,
                    0,
                    0,
                    0,
                    0,
                    0,
                    0,
                    1,
                    0,
                    0,
                    0,
                    0,
                    0,
                    0,
                    0,
                    0,
                    1,
                    0,
                    0,
                    0,
                    0,
                    0,
                    0,
                    0,
                    0,
                    0,
                    0,
                    0,
                    0,
                    0,
                    0,
                    0,
                    0,
                    0,
                    0,
                    0,
                    0,
                    0,
                    0,
                    0,
                    0,
                    0,
                    0,
                    0,
                    0,
                    0,
                    0,
                    0,
                    0,
                    0,
                    0,
                    0,
                    0,
                    0,
                    0,
                    0,
                    0,
                    0,
                    0,
                    0,
                    0
                ]
            }
        },
        {
            "substance_name": "disodium phosphate",
            "substance_type": "small molecule",
            "substance_descriptors": {
                "CID": 24203,
                "MolecularFormula": "HNa2O4P",
                "MolecularWeight": "141.959",
                "CanonicalSMILES": "OP(=O)([O-])[O-].[Na+].[Na+]",
                "IsomericSMILES": "OP(=O)([O-])[O-].[Na+].[Na+]",
                "InChI": "InChI=1S/2Na.H3O4P/c;;1-5(2,3)4/h;;(H3,1,2,3,4)/q2*+1;/p-2",
                "InChIKey": "BNIILDVGGAEEIG-UHFFFAOYSA-L",
                "IUPACName": "disodium;hydrogen phosphate",
                "ExactMass": "141.94078407",
                "MonoisotopicMass": "141.94078407",
                "TPSA": 83.4,
                "Complexity": 46,
                "Charge": 0,
                "HBondDonorCount": 1,
                "HBondAcceptorCount": 4,
                "RotatableBondCount": 0,
                "HeavyAtomCount": 7,
                "IsotopeAtomCount": 0,
                "AtomStereoCount": 0,
                "DefinedAtomStereoCount": 0,
                "UndefinedAtomStereoCount": 0,
                "BondStereoCount": 0,
                "DefinedBondStereoCount": 0,
                "UndefinedBondStereoCount": 0,
                "CovalentUnitCount": 3,
                "ConformerCount3D": 0,
                "Morgan_128": [
                    0,
                    0,
                    0,
                    0,
                    0,
                    0,
                    0,
                    0,
                    0,
                    0,
                    1,
                    0,
                    0,
                    0,
                    0,
                    0,
                    0,
                    0,
                    0,
                    0,
                    0,
                    0,
                    0,
                    0,
                    0,
                    0,
                    0,
                    0,
                    0,
                    0,
                    0,
                    0,
                    0,
                    0,
                    0,
                    0,
                    0,
                    0,
                    0,
                    1,
                    0,
                    0,
                    0,
                    0,
                    0,
                    0,
                    1,
                    0,
                    0,
                    0,
                    0,
                    1,
                    0,
                    0,
                    0,
                    0,
                    0,
                    0,
                    0,
                    0,
                    0,
                    1,
                    0,
                    0,
                    1,
                    0,
                    0,
                    0,
                    0,
                    0,
                    0,
                    0,
                    0,
                    0,
                    0,
                    1,
                    0,
                    0,
                    0,
                    0,
                    1,
                    0,
                    0,
                    0,
                    0,
                    0,
                    0,
                    0,
                    0,
                    0,
                    0,
                    0,
                    0,
                    0,
                    0,
                    0,
                    0,
                    0,
                    0,
                    0,
                    0,
                    0,
                    1,
                    0,
                    0,
                    0,
                    0,
                    0,
                    0,
                    0,
                    0,
                    0,
                    0,
                    0,
                    0,
                    0,
                    0,
                    0,
                    0,
                    0,
                    0,
                    0,
                    0,
                    0,
                    0,
                    0,
                    0,
                    0
                ]
            }
        },
        {
            "substance_name": "monopotassium phosphate",
            "substance_type": "small molecule",
            "substance_descriptors": {
                "CID": 516951,
                "MolecularFormula": "H2KO4P",
                "MolecularWeight": "136.086",
                "CanonicalSMILES": "OP(=O)(O)[O-].[K+]",
                "IsomericSMILES": "OP(=O)(O)[O-].[K+]",
                "InChI": "InChI=1S/K.H3O4P/c;1-5(2,3)4/h;(H3,1,2,3,4)/q+1;/p-1",
                "InChIKey": "GNSKLFRGEWLPPA-UHFFFAOYSA-M",
                "IUPACName": "potassium;dihydrogen phosphate",
                "ExactMass": "135.93277702",
                "MonoisotopicMass": "135.93277702",
                "TPSA": 80.6,
                "Complexity": 61,
                "Charge": 0,
                "HBondDonorCount": 2,
                "HBondAcceptorCount": 4,
                "RotatableBondCount": 0,
                "HeavyAtomCount": 6,
                "IsotopeAtomCount": 0,
                "AtomStereoCount": 0,
                "DefinedAtomStereoCount": 0,
                "UndefinedAtomStereoCount": 0,
                "BondStereoCount": 0,
                "DefinedBondStereoCount": 0,
                "UndefinedBondStereoCount": 0,
                "CovalentUnitCount": 2,
                "ConformerCount3D": 0,
                "Morgan_128": [
                    1,
                    0,
                    0,
                    0,
                    0,
                    0,
                    0,
                    0,
                    0,
                    0,
                    1,
                    0,
                    0,
                    0,
                    0,
                    0,
                    0,
                    0,
                    0,
                    0,
                    0,
                    0,
                    0,
                    0,
                    0,
                    0,
                    0,
                    0,
                    0,
                    0,
                    0,
                    0,
                    0,
                    0,
                    0,
                    0,
                    0,
                    0,
                    0,
                    1,
                    0,
                    0,
                    0,
                    0,
                    0,
                    0,
                    1,
                    0,
                    0,
                    0,
                    0,
                    1,
                    0,
                    0,
                    0,
                    0,
                    0,
                    0,
                    0,
                    0,
                    0,
                    0,
                    0,
                    0,
                    1,
                    0,
                    0,
                    0,
                    0,
                    0,
                    0,
                    0,
                    0,
                    0,
                    0,
                    1,
                    0,
                    0,
                    0,
                    0,
                    0,
                    0,
                    0,
                    1,
                    0,
                    0,
                    0,
                    0,
                    0,
                    0,
                    0,
                    0,
                    0,
                    0,
                    0,
                    0,
                    0,
                    0,
                    0,
                    0,
                    0,
                    0,
                    1,
                    0,
                    0,
                    0,
                    0,
                    0,
                    0,
                    0,
                    0,
                    0,
                    0,
                    0,
                    0,
                    0,
                    0,
                    0,
                    0,
                    0,
                    0,
                    0,
                    0,
                    0,
                    0,
                    0,
                    0,
                    0
                ]
            }
        },
        {
            "substance_name": "water",
            "substance_type": "small molecule",
            "substance_descriptors": {
                "CID": 962,
                "MolecularFormula": "H2O",
                "MolecularWeight": "18.015",
                "CanonicalSMILES": "O",
                "IsomericSMILES": "O",
                "InChI": "InChI=1S/H2O/h1H2",
                "InChIKey": "XLYOFNOQVPJJNP-UHFFFAOYSA-N",
                "IUPACName": "oxidane",
                "XLogP": -0.5,
                "ExactMass": "18.010564683",
                "MonoisotopicMass": "18.010564683",
                "TPSA": 1,
                "Complexity": 0,
                "Charge": 0,
                "HBondDonorCount": 1,
                "HBondAcceptorCount": 1,
                "RotatableBondCount": 0,
                "HeavyAtomCount": 1,
                "IsotopeAtomCount": 0,
                "AtomStereoCount": 0,
                "DefinedAtomStereoCount": 0,
                "UndefinedAtomStereoCount": 0,
                "BondStereoCount": 0,
                "DefinedBondStereoCount": 0,
                "UndefinedBondStereoCount": 0,
                "CovalentUnitCount": 1,
                "Volume3D": 14.7,
                "XStericQuadrupole3D": 0.49,
                "YStericQuadrupole3D": 0.49,
                "ZStericQuadrupole3D": 0.49,
                "FeatureAcceptorCount3D": 1,
                "FeatureDonorCount3D": 1,
                "FeatureAnionCount3D": 0,
                "FeatureCationCount3D": 0,
                "FeatureRingCount3D": 0,
                "FeatureHydrophobeCount3D": 0,
                "ConformerModelRMSD3D": 0.4,
                "EffectiveRotorCount3D": 0,
                "ConformerCount3D": 1,
                "Morgan_128": [
                    0,
                    0,
                    0,
                    0,
                    0,
                    0,
                    0,
                    0,
                    0,
                    0,
                    0,
                    0,
                    0,
                    0,
                    0,
                    0,
                    0,
                    0,
                    0,
                    0,
                    0,
                    0,
                    1,
                    0,
                    0,
                    0,
                    0,
                    0,
                    0,
                    0,
                    0,
                    0,
                    0,
                    0,
                    0,
                    0,
                    0,
                    0,
                    0,
                    0,
                    0,
                    0,
                    0,
                    0,
                    0,
                    0,
                    0,
                    0,
                    0,
                    0,
                    0,
                    0,
                    0,
                    0,
                    0,
                    0,
                    0,
                    0,
                    0,
                    0,
                    0,
                    0,
                    0,
                    0,
                    0,
                    0,
                    0,
                    0,
                    0,
                    0,
                    0,
                    0,
                    0,
                    0,
                    0,
                    0,
                    0,
                    0,
                    0,
                    0,
                    0,
                    0,
                    0,
                    0,
                    0,
                    0,
                    0,
                    0,
                    0,
                    0,
                    0,
                    0,
                    0,
                    0,
                    0,
                    0,
                    0,
                    0,
                    0,
                    0,
                    0,
                    0,
                    0,
                    0,
                    0,
                    0,
                    0,
                    0,
                    0,
                    0,
                    0,
                    0,
                    0,
                    0,
                    0,
                    0,
                    0,
                    0,
                    0,
                    0,
                    0,
                    0,
                    0,
                    0,
                    0,
                    0,
                    0,
                    0
                ]
            }
        }
    ],
    "LDL_ranking": 1.0,
    "UDL_ranking": 1.0,
    "LDL_category": "Very High Detection (Low Sensitivity)",
    "UDL_category": "High UDL Range"
}